s 1.000000000 _0_ AGT  --- 0 tcp 40 [0 0 0 0] ------- [0:0 9:0 32 0] [0 0] 0 0
r 1.000000000 _0_ RTR  --- 0 tcp 40 [0 0 0 0] ------- [0:0 9:0 32 0] [0 0] 0 0
s 1.000000000 _0_ RTR  --- 0 AODV 48 [0 0 0 0] ------- [0:255 -1:255 30 0] [0x2 1 1 [9 0] [0 4]] (REQUEST)
r 1.000988333 _1_ RTR  --- 0 AODV 48 [0 ffffffff 0 800] ------- [0:255 -1:255 30 0] [0x2 1 1 [9 0] [0 4]] (REQUEST)
r 1.000988333 _4_ RTR  --- 0 AODV 48 [0 ffffffff 0 800] ------- [0:255 -1:255 30 0] [0x2 1 1 [9 0] [0 4]] (REQUEST)
r 1.000988471 _5_ RTR  --- 0 AODV 48 [0 ffffffff 0 800] ------- [0:255 -1:255 30 0] [0x2 1 1 [9 0] [0 4]] (REQUEST)
r 1.000988667 _2_ RTR  --- 0 AODV 48 [0 ffffffff 0 800] ------- [0:255 -1:255 30 0] [0x2 1 1 [9 0] [0 4]] (REQUEST)
r 1.000988745 _6_ RTR  --- 0 AODV 48 [0 ffffffff 0 800] ------- [0:255 -1:255 30 0] [0x2 1 1 [9 0] [0 4]] (REQUEST)
r 1.000988745 _8_ RTR  --- 0 AODV 48 [0 ffffffff 0 800] ------- [0:255 -1:255 30 0] [0x2 1 1 [9 0] [0 4]] (REQUEST)
s 1.001869560 _1_ RTR  --- 0 AODV 48 [0 ffffffff 0 800] ------- [1:255 -1:255 29 0] [0x2 2 1 [9 0] [0 4]] (REQUEST)
r 1.003177893 _0_ RTR  --- 0 AODV 48 [0 ffffffff 1 800] ------- [1:255 -1:255 29 0] [0x2 2 1 [9 0] [0 4]] (REQUEST)
r 1.003177893 _2_ RTR  --- 0 AODV 48 [0 ffffffff 1 800] ------- [1:255 -1:255 29 0] [0x2 2 1 [9 0] [0 4]] (REQUEST)
r 1.003177893 _5_ RTR  --- 0 AODV 48 [0 ffffffff 1 800] ------- [1:255 -1:255 29 0] [0x2 2 1 [9 0] [0 4]] (REQUEST)
r 1.003178031 _4_ RTR  --- 0 AODV 48 [0 ffffffff 1 800] ------- [1:255 -1:255 29 0] [0x2 2 1 [9 0] [0 4]] (REQUEST)
r 1.003178031 _6_ RTR  --- 0 AODV 48 [0 ffffffff 1 800] ------- [1:255 -1:255 29 0] [0x2 2 1 [9 0] [0 4]] (REQUEST)
r 1.003178227 _3_ RTR  --- 0 AODV 48 [0 ffffffff 1 800] ------- [1:255 -1:255 29 0] [0x2 2 1 [9 0] [0 4]] (REQUEST)
r 1.003178227 _8_ RTR  --- 0 AODV 48 [0 ffffffff 1 800] ------- [1:255 -1:255 29 0] [0x2 2 1 [9 0] [0 4]] (REQUEST)
r 1.003178305 _7_ RTR  --- 0 AODV 48 [0 ffffffff 1 800] ------- [1:255 -1:255 29 0] [0x2 2 1 [9 0] [0 4]] (REQUEST)
r 1.003178305 _9_ RTR  --- 0 AODV 48 [0 ffffffff 1 800] ------- [1:255 -1:255 29 0] [0x2 2 1 [9 0] [0 4]] (REQUEST)
s 1.003178305 _9_ RTR  --- 0 AODV 44 [0 0 0 0] ------- [9:255 0:255 30 1] [0x4 1 [9 4] 10.000000] (REPLY)
s 1.003334763 _8_ RTR  --- 0 AODV 48 [0 ffffffff 0 800] ------- [8:255 -1:255 29 0] [0x2 2 1 [9 0] [0 4]] (REQUEST)
s 1.004118284 _2_ RTR  --- 0 AODV 48 [0 ffffffff 0 800] ------- [2:255 -1:255 29 0] [0x2 2 1 [9 0] [0 4]] (REQUEST)
r 1.004443096 _5_ RTR  --- 0 AODV 48 [0 ffffffff 8 800] ------- [8:255 -1:255 29 0] [0x2 2 1 [9 0] [0 4]] (REQUEST)
r 1.004443096 _9_ RTR  --- 0 AODV 48 [0 ffffffff 8 800] ------- [8:255 -1:255 29 0] [0x2 2 1 [9 0] [0 4]] (REQUEST)
r 1.004443234 _6_ RTR  --- 0 AODV 48 [0 ffffffff 8 800] ------- [8:255 -1:255 29 0] [0x2 2 1 [9 0] [0 4]] (REQUEST)
r 1.004443234 _4_ RTR  --- 0 AODV 48 [0 ffffffff 8 800] ------- [8:255 -1:255 29 0] [0x2 2 1 [9 0] [0 4]] (REQUEST)
r 1.004443430 _1_ RTR  --- 0 AODV 48 [0 ffffffff 8 800] ------- [8:255 -1:255 29 0] [0x2 2 1 [9 0] [0 4]] (REQUEST)
r 1.004443508 _7_ RTR  --- 0 AODV 48 [0 ffffffff 8 800] ------- [8:255 -1:255 29 0] [0x2 2 1 [9 0] [0 4]] (REQUEST)
r 1.004443508 _2_ RTR  --- 0 AODV 48 [0 ffffffff 8 800] ------- [8:255 -1:255 29 0] [0x2 2 1 [9 0] [0 4]] (REQUEST)
r 1.004443508 _0_ RTR  --- 0 AODV 48 [0 ffffffff 8 800] ------- [8:255 -1:255 29 0] [0x2 2 1 [9 0] [0 4]] (REQUEST)
s 1.004819759 _7_ RTR  --- 0 AODV 48 [0 ffffffff 1 800] ------- [7:255 -1:255 28 0] [0x2 3 1 [9 0] [0 4]] (REQUEST)
s 1.005400067 _4_ RTR  --- 0 AODV 48 [0 ffffffff 0 800] ------- [4:255 -1:255 29 0] [0x2 2 1 [9 0] [0 4]] (REQUEST)
r 1.006440096 _1_ RTR  --- 0 AODV 48 [0 ffffffff 2 800] ------- [2:255 -1:255 29 0] [0x2 2 1 [9 0] [0 4]] (REQUEST)
r 1.006440096 _3_ RTR  --- 0 AODV 48 [0 ffffffff 2 800] ------- [2:255 -1:255 29 0] [0x2 2 1 [9 0] [0 4]] (REQUEST)
r 1.006440096 _6_ RTR  --- 0 AODV 48 [0 ffffffff 2 800] ------- [2:255 -1:255 29 0] [0x2 2 1 [9 0] [0 4]] (REQUEST)
r 1.006440234 _5_ RTR  --- 0 AODV 48 [0 ffffffff 2 800] ------- [2:255 -1:255 29 0] [0x2 2 1 [9 0] [0 4]] (REQUEST)
r 1.006440234 _7_ RTR  --- 0 AODV 48 [0 ffffffff 2 800] ------- [2:255 -1:255 29 0] [0x2 2 1 [9 0] [0 4]] (REQUEST)
r 1.006440430 _0_ RTR  --- 0 AODV 48 [0 ffffffff 2 800] ------- [2:255 -1:255 29 0] [0x2 2 1 [9 0] [0 4]] (REQUEST)
r 1.006440430 _9_ RTR  --- 0 AODV 48 [0 ffffffff 2 800] ------- [2:255 -1:255 29 0] [0x2 2 1 [9 0] [0 4]] (REQUEST)
r 1.006440508 _4_ RTR  --- 0 AODV 48 [0 ffffffff 2 800] ------- [2:255 -1:255 29 0] [0x2 2 1 [9 0] [0 4]] (REQUEST)
r 1.006440508 _8_ RTR  --- 0 AODV 48 [0 ffffffff 2 800] ------- [2:255 -1:255 29 0] [0x2 2 1 [9 0] [0 4]] (REQUEST)
r 1.007358568 _6_ RTR  --- 0 AODV 48 [0 ffffffff 7 800] ------- [7:255 -1:255 28 0] [0x2 3 1 [9 0] [0 4]] (REQUEST)
r 1.007358568 _3_ RTR  --- 0 AODV 48 [0 ffffffff 7 800] ------- [7:255 -1:255 28 0] [0x2 3 1 [9 0] [0 4]] (REQUEST)
r 1.007358706 _2_ RTR  --- 0 AODV 48 [0 ffffffff 7 800] ------- [7:255 -1:255 28 0] [0x2 3 1 [9 0] [0 4]] (REQUEST)
r 1.007358706 _9_ RTR  --- 0 AODV 48 [0 ffffffff 7 800] ------- [7:255 -1:255 28 0] [0x2 3 1 [9 0] [0 4]] (REQUEST)
r 1.007358901 _5_ RTR  --- 0 AODV 48 [0 ffffffff 7 800] ------- [7:255 -1:255 28 0] [0x2 3 1 [9 0] [0 4]] (REQUEST)
r 1.007358980 _1_ RTR  --- 0 AODV 48 [0 ffffffff 7 800] ------- [7:255 -1:255 28 0] [0x2 3 1 [9 0] [0 4]] (REQUEST)
r 1.007358980 _8_ RTR  --- 0 AODV 48 [0 ffffffff 7 800] ------- [7:255 -1:255 28 0] [0x2 3 1 [9 0] [0 4]] (REQUEST)
s 1.008980026 _5_ RTR  --- 0 AODV 48 [0 ffffffff 0 800] ------- [5:255 -1:255 29 0] [0x2 2 1 [9 0] [0 4]] (REQUEST)
s 1.009153506 _6_ RTR  --- 0 AODV 48 [0 ffffffff 0 800] ------- [6:255 -1:255 29 0] [0x2 2 1 [9 0] [0 4]] (REQUEST)
r 1.010208020 _4_ RTR  --- 0 AODV 48 [0 ffffffff 5 800] ------- [5:255 -1:255 29 0] [0x2 2 1 [9 0] [0 4]] (REQUEST)
r 1.010208020 _1_ RTR  --- 0 AODV 48 [0 ffffffff 5 800] ------- [5:255 -1:255 29 0] [0x2 2 1 [9 0] [0 4]] (REQUEST)
r 1.010208020 _6_ RTR  --- 0 AODV 48 [0 ffffffff 5 800] ------- [5:255 -1:255 29 0] [0x2 2 1 [9 0] [0 4]] (REQUEST)
r 1.010208020 _8_ RTR  --- 0 AODV 48 [0 ffffffff 5 800] ------- [5:255 -1:255 29 0] [0x2 2 1 [9 0] [0 4]] (REQUEST)
r 1.010208159 _2_ RTR  --- 0 AODV 48 [0 ffffffff 5 800] ------- [5:255 -1:255 29 0] [0x2 2 1 [9 0] [0 4]] (REQUEST)
r 1.010208159 _0_ RTR  --- 0 AODV 48 [0 ffffffff 5 800] ------- [5:255 -1:255 29 0] [0x2 2 1 [9 0] [0 4]] (REQUEST)
r 1.010208159 _9_ RTR  --- 0 AODV 48 [0 ffffffff 5 800] ------- [5:255 -1:255 29 0] [0x2 2 1 [9 0] [0 4]] (REQUEST)
r 1.010208354 _7_ RTR  --- 0 AODV 48 [0 ffffffff 5 800] ------- [5:255 -1:255 29 0] [0x2 2 1 [9 0] [0 4]] (REQUEST)
r 1.010208432 _3_ RTR  --- 0 AODV 48 [0 ffffffff 5 800] ------- [5:255 -1:255 29 0] [0x2 2 1 [9 0] [0 4]] (REQUEST)
s 1.011541462 _3_ RTR  --- 0 AODV 48 [0 ffffffff 1 800] ------- [3:255 -1:255 28 0] [0x2 3 1 [9 0] [0 4]] (REQUEST)
r 1.011852395 _1_ RTR  --- 0 AODV 44 [13a 1 9 800] ------- [9:255 0:255 30 1] [0x4 1 [9 4] 10.000000] (REPLY)
f 1.011852395 _1_ RTR  --- 0 AODV 44 [13a 1 9 800] ------- [9:255 0:255 29 0] [0x4 2 [9 4] 10.000000] (REPLY)
r 1.013165199 _0_ RTR  --- 0 AODV 48 [0 ffffffff 4 800] ------- [4:255 -1:255 29 0] [0x2 2 1 [9 0] [0 4]] (REQUEST)
r 1.013165199 _5_ RTR  --- 0 AODV 48 [0 ffffffff 4 800] ------- [4:255 -1:255 29 0] [0x2 2 1 [9 0] [0 4]] (REQUEST)
r 1.013165337 _1_ RTR  --- 0 AODV 48 [0 ffffffff 4 800] ------- [4:255 -1:255 29 0] [0x2 2 1 [9 0] [0 4]] (REQUEST)
r 1.013165337 _8_ RTR  --- 0 AODV 48 [0 ffffffff 4 800] ------- [4:255 -1:255 29 0] [0x2 2 1 [9 0] [0 4]] (REQUEST)
r 1.013165533 _6_ RTR  --- 0 AODV 48 [0 ffffffff 4 800] ------- [4:255 -1:255 29 0] [0x2 2 1 [9 0] [0 4]] (REQUEST)
r 1.013165611 _2_ RTR  --- 0 AODV 48 [0 ffffffff 4 800] ------- [4:255 -1:255 29 0] [0x2 2 1 [9 0] [0 4]] (REQUEST)
r 1.013165611 _9_ RTR  --- 0 AODV 48 [0 ffffffff 4 800] ------- [4:255 -1:255 29 0] [0x2 2 1 [9 0] [0 4]] (REQUEST)
r 1.014083866 _5_ RTR  --- 0 AODV 48 [0 ffffffff 6 800] ------- [6:255 -1:255 29 0] [0x2 2 1 [9 0] [0 4]] (REQUEST)
r 1.014083866 _2_ RTR  --- 0 AODV 48 [0 ffffffff 6 800] ------- [6:255 -1:255 29 0] [0x2 2 1 [9 0] [0 4]] (REQUEST)
r 1.014083866 _7_ RTR  --- 0 AODV 48 [0 ffffffff 6 800] ------- [6:255 -1:255 29 0] [0x2 2 1 [9 0] [0 4]] (REQUEST)
r 1.014083866 _9_ RTR  --- 0 AODV 48 [0 ffffffff 6 800] ------- [6:255 -1:255 29 0] [0x2 2 1 [9 0] [0 4]] (REQUEST)
r 1.014084004 _3_ RTR  --- 0 AODV 48 [0 ffffffff 6 800] ------- [6:255 -1:255 29 0] [0x2 2 1 [9 0] [0 4]] (REQUEST)
r 1.014084004 _1_ RTR  --- 0 AODV 48 [0 ffffffff 6 800] ------- [6:255 -1:255 29 0] [0x2 2 1 [9 0] [0 4]] (REQUEST)
r 1.014084004 _8_ RTR  --- 0 AODV 48 [0 ffffffff 6 800] ------- [6:255 -1:255 29 0] [0x2 2 1 [9 0] [0 4]] (REQUEST)
r 1.014084199 _4_ RTR  --- 0 AODV 48 [0 ffffffff 6 800] ------- [6:255 -1:255 29 0] [0x2 2 1 [9 0] [0 4]] (REQUEST)
r 1.014084278 _0_ RTR  --- 0 AODV 48 [0 ffffffff 6 800] ------- [6:255 -1:255 29 0] [0x2 2 1 [9 0] [0 4]] (REQUEST)
r 1.016201004 _2_ RTR  --- 0 AODV 48 [0 ffffffff 3 800] ------- [3:255 -1:255 28 0] [0x2 3 1 [9 0] [0 4]] (REQUEST)
r 1.016201004 _7_ RTR  --- 0 AODV 48 [0 ffffffff 3 800] ------- [3:255 -1:255 28 0] [0x2 3 1 [9 0] [0 4]] (REQUEST)
r 1.016201142 _6_ RTR  --- 0 AODV 48 [0 ffffffff 3 800] ------- [3:255 -1:255 28 0] [0x2 3 1 [9 0] [0 4]] (REQUEST)
r 1.016201337 _1_ RTR  --- 0 AODV 48 [0 ffffffff 3 800] ------- [3:255 -1:255 28 0] [0x2 3 1 [9 0] [0 4]] (REQUEST)
r 1.016201416 _5_ RTR  --- 0 AODV 48 [0 ffffffff 3 800] ------- [3:255 -1:255 28 0] [0x2 3 1 [9 0] [0 4]] (REQUEST)
r 1.016201416 _9_ RTR  --- 0 AODV 48 [0 ffffffff 3 800] ------- [3:255 -1:255 28 0] [0x2 3 1 [9 0] [0 4]] (REQUEST)
r 1.020017671 _0_ RTR  --- 0 AODV 44 [13a 0 1 800] ------- [9:255 0:255 29 0] [0x4 2 [9 4] 10.000000] (REPLY)
s 1.020017671 _0_ RTR  --- 0 tcp 40 [0 0 0 0] ------- [0:0 9:0 30 1] [0 0] 0 0
r 1.022122671 _1_ RTR  --- 0 tcp 40 [13a 1 0 800] ------- [0:0 9:0 30 1] [0 0] 1 0
f 1.022122671 _1_ RTR  --- 0 tcp 40 [13a 1 0 800] ------- [0:0 9:0 29 9] [0 0] 1 0
r 1.024048907 _9_ AGT  --- 0 tcp 40 [13a 9 1 800] ------- [0:0 9:0 29 9] [0 0] 2 0
s 1.024048907 _9_ AGT  --- 1 ack 40 [0 0 0 0] ------- [9:0 0:0 32 0] [0 0] 0 0
r 1.024048907 _9_ RTR  --- 1 ack 40 [0 0 0 0] ------- [9:0 0:0 32 0] [0 0] 0 0
s 1.024048907 _9_ RTR  --- 1 ack 40 [0 0 0 0] ------- [9:0 0:0 30 1] [0 0] 0 0
r 1.026095143 _1_ RTR  --- 1 ack 40 [13a 1 9 800] ------- [9:0 0:0 30 1] [0 0] 1 0
f 1.026095143 _1_ RTR  --- 1 ack 40 [13a 1 9 800] ------- [9:0 0:0 29 0] [0 0] 1 0
r 1.028500143 _0_ AGT  --- 1 ack 40 [13a 0 1 800] ------- [9:0 0:0 29 0] [0 0] 2 0
s 1.028500143 _0_ AGT  --- 2 tcp 1040 [0 0 0 0] ------- [0:0 9:0 32 0] [1 0] 0 0
r 1.028500143 _0_ RTR  --- 2 tcp 1040 [0 0 0 0] ------- [0:0 9:0 32 0] [1 0] 0 0
s 1.028500143 _0_ AGT  --- 3 tcp 1040 [0 0 0 0] ------- [0:0 9:0 32 0] [2 0] 0 0
r 1.028500143 _0_ RTR  --- 3 tcp 1040 [0 0 0 0] ------- [0:0 9:0 32 0] [2 0] 0 0
s 1.028500143 _0_ RTR  --- 2 tcp 1040 [0 0 0 0] ------- [0:0 9:0 30 1] [1 0] 0 0
s 1.028500143 _0_ RTR  --- 3 tcp 1040 [0 0 0 0] ------- [0:0 9:0 30 1] [2 0] 0 0
r 1.038445143 _1_ RTR  --- 2 tcp 1040 [13a 1 0 800] ------- [0:0 9:0 30 1] [1 0] 1 0
f 1.038445143 _1_ RTR  --- 2 tcp 1040 [13a 1 0 800] ------- [0:0 9:0 29 9] [1 0] 1 0
r 1.048511379 _9_ AGT  --- 2 tcp 1040 [13a 9 1 800] ------- [0:0 9:0 29 9] [1 0] 2 0
s 1.048511379 _9_ AGT  --- 4 ack 40 [0 0 0 0] ------- [9:0 0:0 32 0] [1 0] 0 0
r 1.048511379 _9_ RTR  --- 4 ack 40 [0 0 0 0] ------- [9:0 0:0 32 0] [1 0] 0 0
s 1.048511379 _9_ RTR  --- 4 ack 40 [0 0 0 0] ------- [9:0 0:0 30 1] [1 0] 0 0
r 1.050617615 _1_ RTR  --- 4 ack 40 [13a 1 9 800] ------- [9:0 0:0 30 1] [1 0] 1 0
f 1.050617615 _1_ RTR  --- 4 ack 40 [13a 1 9 800] ------- [9:0 0:0 29 0] [1 0] 1 0
r 1.052722615 _0_ AGT  --- 4 ack 40 [13a 0 1 800] ------- [9:0 0:0 29 0] [1 0] 2 0
s 1.052722615 _0_ AGT  --- 5 tcp 1040 [0 0 0 0] ------- [0:0 9:0 32 0] [3 0] 0 0
r 1.052722615 _0_ RTR  --- 5 tcp 1040 [0 0 0 0] ------- [0:0 9:0 32 0] [3 0] 0 0
s 1.052722615 _0_ AGT  --- 6 tcp 1040 [0 0 0 0] ------- [0:0 9:0 32 0] [4 0] 0 0
r 1.052722615 _0_ RTR  --- 6 tcp 1040 [0 0 0 0] ------- [0:0 9:0 32 0] [4 0] 0 0
s 1.052722615 _0_ RTR  --- 5 tcp 1040 [0 0 0 0] ------- [0:0 9:0 30 1] [3 0] 0 0
s 1.052722615 _0_ RTR  --- 6 tcp 1040 [0 0 0 0] ------- [0:0 9:0 30 1] [4 0] 0 0
r 1.062607615 _1_ RTR  --- 3 tcp 1040 [13a 1 0 800] ------- [0:0 9:0 30 1] [2 0] 1 0
f 1.062607615 _1_ RTR  --- 3 tcp 1040 [13a 1 0 800] ------- [0:0 9:0 29 9] [2 0] 1 0
r 1.072653851 _9_ AGT  --- 3 tcp 1040 [13a 9 1 800] ------- [0:0 9:0 29 9] [2 0] 2 0
s 1.072653851 _9_ AGT  --- 7 ack 40 [0 0 0 0] ------- [9:0 0:0 32 0] [2 0] 0 0
r 1.072653851 _9_ RTR  --- 7 ack 40 [0 0 0 0] ------- [9:0 0:0 32 0] [2 0] 0 0
s 1.072653851 _9_ RTR  --- 7 ack 40 [0 0 0 0] ------- [9:0 0:0 30 1] [2 0] 0 0
r 1.074540087 _1_ RTR  --- 7 ack 40 [13a 1 9 800] ------- [9:0 0:0 30 1] [2 0] 1 0
f 1.074540087 _1_ RTR  --- 7 ack 40 [13a 1 9 800] ------- [9:0 0:0 29 0] [2 0] 1 0
r 1.076485087 _0_ AGT  --- 7 ack 40 [13a 0 1 800] ------- [9:0 0:0 29 0] [2 0] 2 0
s 1.076485087 _0_ AGT  --- 8 tcp 1040 [0 0 0 0] ------- [0:0 9:0 32 0] [5 0] 0 0
r 1.076485087 _0_ RTR  --- 8 tcp 1040 [0 0 0 0] ------- [0:0 9:0 32 0] [5 0] 0 0
s 1.076485087 _0_ AGT  --- 9 tcp 1040 [0 0 0 0] ------- [0:0 9:0 32 0] [6 0] 0 0
r 1.076485087 _0_ RTR  --- 9 tcp 1040 [0 0 0 0] ------- [0:0 9:0 32 0] [6 0] 0 0
s 1.076485087 _0_ RTR  --- 8 tcp 1040 [0 0 0 0] ------- [0:0 9:0 30 1] [5 0] 0 0
s 1.076485087 _0_ RTR  --- 9 tcp 1040 [0 0 0 0] ------- [0:0 9:0 30 1] [6 0] 0 0
r 1.086370087 _1_ RTR  --- 5 tcp 1040 [13a 1 0 800] ------- [0:0 9:0 30 1] [3 0] 1 0
f 1.086370087 _1_ RTR  --- 5 tcp 1040 [13a 1 0 800] ------- [0:0 9:0 29 9] [3 0] 1 0
r 1.096236323 _9_ AGT  --- 5 tcp 1040 [13a 9 1 800] ------- [0:0 9:0 29 9] [3 0] 2 0
s 1.096236323 _9_ AGT  --- 10 ack 40 [0 0 0 0] ------- [9:0 0:0 32 0] [3 0] 0 0
r 1.096236323 _9_ RTR  --- 10 ack 40 [0 0 0 0] ------- [9:0 0:0 32 0] [3 0] 0 0
s 1.096236323 _9_ RTR  --- 10 ack 40 [0 0 0 0] ------- [9:0 0:0 30 1] [3 0] 0 0
r 1.098182559 _1_ RTR  --- 10 ack 40 [13a 1 9 800] ------- [9:0 0:0 30 1] [3 0] 1 0
f 1.098182559 _1_ RTR  --- 10 ack 40 [13a 1 9 800] ------- [9:0 0:0 29 0] [3 0] 1 0
r 1.100247559 _0_ AGT  --- 10 ack 40 [13a 0 1 800] ------- [9:0 0:0 29 0] [3 0] 2 0
s 1.100247559 _0_ AGT  --- 11 tcp 1040 [0 0 0 0] ------- [0:0 9:0 32 0] [7 0] 0 0
r 1.100247559 _0_ RTR  --- 11 tcp 1040 [0 0 0 0] ------- [0:0 9:0 32 0] [7 0] 0 0
s 1.100247559 _0_ AGT  --- 12 tcp 1040 [0 0 0 0] ------- [0:0 9:0 32 0] [8 0] 0 0
r 1.100247559 _0_ RTR  --- 12 tcp 1040 [0 0 0 0] ------- [0:0 9:0 32 0] [8 0] 0 0
s 1.100247559 _0_ RTR  --- 11 tcp 1040 [0 0 0 0] ------- [0:0 9:0 30 1] [7 0] 0 0
s 1.100247559 _0_ RTR  --- 12 tcp 1040 [0 0 0 0] ------- [0:0 9:0 30 1] [8 0] 0 0
r 1.110172559 _1_ RTR  --- 6 tcp 1040 [13a 1 0 800] ------- [0:0 9:0 30 1] [4 0] 1 0
f 1.110172559 _1_ RTR  --- 6 tcp 1040 [13a 1 0 800] ------- [0:0 9:0 29 9] [4 0] 1 0
r 1.120017893 _1_ RTR  --- 8 tcp 1040 [13a 1 0 800] ------- [0:0 9:0 30 1] [5 0] 1 0
f 1.120017893 _1_ RTR  --- 8 tcp 1040 [13a 1 0 800] ------- [0:0 9:0 29 9] [5 0] 1 0
r 1.130024129 _9_ AGT  --- 6 tcp 1040 [13a 9 1 800] ------- [0:0 9:0 29 9] [4 0] 2 0
s 1.130024129 _9_ AGT  --- 13 ack 40 [0 0 0 0] ------- [9:0 0:0 32 0] [4 0] 0 0
r 1.130024129 _9_ RTR  --- 13 ack 40 [0 0 0 0] ------- [9:0 0:0 32 0] [4 0] 0 0
s 1.130024129 _9_ RTR  --- 13 ack 40 [0 0 0 0] ------- [9:0 0:0 30 1] [4 0] 0 0
r 1.139971110 _9_ AGT  --- 8 tcp 1040 [13a 9 1 800] ------- [0:0 9:0 29 9] [5 0] 2 0
s 1.139971110 _9_ AGT  --- 14 ack 40 [0 0 0 0] ------- [9:0 0:0 32 0] [5 0] 0 0
r 1.139971110 _9_ RTR  --- 14 ack 40 [0 0 0 0] ------- [9:0 0:0 32 0] [5 0] 0 0
s 1.139971110 _9_ RTR  --- 14 ack 40 [0 0 0 0] ------- [9:0 0:0 30 1] [5 0] 0 0
r 1.141917346 _1_ RTR  --- 13 ack 40 [13a 1 9 800] ------- [9:0 0:0 30 1] [4 0] 1 0
f 1.141917346 _1_ RTR  --- 13 ack 40 [13a 1 9 800] ------- [9:0 0:0 29 0] [4 0] 1 0
r 1.143784328 _1_ RTR  --- 14 ack 40 [13a 1 9 800] ------- [9:0 0:0 30 1] [5 0] 1 0
f 1.143784328 _1_ RTR  --- 14 ack 40 [13a 1 9 800] ------- [9:0 0:0 29 0] [5 0] 1 0
r 1.145769328 _0_ AGT  --- 13 ack 40 [13a 0 1 800] ------- [9:0 0:0 29 0] [4 0] 2 0
s 1.145769328 _0_ AGT  --- 15 tcp 1040 [0 0 0 0] ------- [0:0 9:0 32 0] [9 0] 0 0
r 1.145769328 _0_ RTR  --- 15 tcp 1040 [0 0 0 0] ------- [0:0 9:0 32 0] [9 0] 0 0
s 1.145769328 _0_ AGT  --- 16 tcp 1040 [0 0 0 0] ------- [0:0 9:0 32 0] [10 0] 0 0
r 1.145769328 _0_ RTR  --- 16 tcp 1040 [0 0 0 0] ------- [0:0 9:0 32 0] [10 0] 0 0
s 1.145769328 _0_ RTR  --- 15 tcp 1040 [0 0 0 0] ------- [0:0 9:0 30 1] [9 0] 0 0
s 1.145769328 _0_ RTR  --- 16 tcp 1040 [0 0 0 0] ------- [0:0 9:0 30 1] [10 0] 0 0
r 1.147714661 _0_ AGT  --- 14 ack 40 [13a 0 1 800] ------- [9:0 0:0 29 0] [5 0] 2 0
s 1.147714661 _0_ AGT  --- 17 tcp 1040 [0 0 0 0] ------- [0:0 9:0 32 0] [11 0] 0 0
r 1.147714661 _0_ RTR  --- 17 tcp 1040 [0 0 0 0] ------- [0:0 9:0 32 0] [11 0] 0 0
s 1.147714661 _0_ AGT  --- 18 tcp 1040 [0 0 0 0] ------- [0:0 9:0 32 0] [12 0] 0 0
r 1.147714661 _0_ RTR  --- 18 tcp 1040 [0 0 0 0] ------- [0:0 9:0 32 0] [12 0] 0 0
s 1.147714661 _0_ RTR  --- 17 tcp 1040 [0 0 0 0] ------- [0:0 9:0 30 1] [11 0] 0 0
s 1.147714661 _0_ RTR  --- 18 tcp 1040 [0 0 0 0] ------- [0:0 9:0 30 1] [12 0] 0 0
r 1.157639661 _1_ RTR  --- 9 tcp 1040 [13a 1 0 800] ------- [0:0 9:0 30 1] [6 0] 1 0
f 1.157639661 _1_ RTR  --- 9 tcp 1040 [13a 1 0 800] ------- [0:0 9:0 29 9] [6 0] 1 0
r 1.167564994 _1_ RTR  --- 11 tcp 1040 [13a 1 0 800] ------- [0:0 9:0 30 1] [7 0] 1 0
f 1.167564994 _1_ RTR  --- 11 tcp 1040 [13a 1 0 800] ------- [0:0 9:0 29 9] [7 0] 1 0
r 1.177411230 _9_ AGT  --- 9 tcp 1040 [13a 9 1 800] ------- [0:0 9:0 29 9] [6 0] 2 0
s 1.177411230 _9_ AGT  --- 19 ack 40 [0 0 0 0] ------- [9:0 0:0 32 0] [6 0] 0 0
r 1.177411230 _9_ RTR  --- 19 ack 40 [0 0 0 0] ------- [9:0 0:0 32 0] [6 0] 0 0
s 1.177411230 _9_ RTR  --- 19 ack 40 [0 0 0 0] ------- [9:0 0:0 30 1] [6 0] 0 0
r 1.187498212 _9_ AGT  --- 11 tcp 1040 [13a 9 1 800] ------- [0:0 9:0 29 9] [7 0] 2 0
s 1.187498212 _9_ AGT  --- 20 ack 40 [0 0 0 0] ------- [9:0 0:0 32 0] [7 0] 0 0
r 1.187498212 _9_ RTR  --- 20 ack 40 [0 0 0 0] ------- [9:0 0:0 32 0] [7 0] 0 0
s 1.187498212 _9_ RTR  --- 20 ack 40 [0 0 0 0] ------- [9:0 0:0 30 1] [7 0] 0 0
r 1.189344448 _1_ RTR  --- 19 ack 40 [13a 1 9 800] ------- [9:0 0:0 30 1] [6 0] 1 0
f 1.189344448 _1_ RTR  --- 19 ack 40 [13a 1 9 800] ------- [9:0 0:0 29 0] [6 0] 1 0
r 1.191231429 _1_ RTR  --- 20 ack 40 [13a 1 9 800] ------- [9:0 0:0 30 1] [7 0] 1 0
f 1.191231429 _1_ RTR  --- 20 ack 40 [13a 1 9 800] ------- [9:0 0:0 29 0] [7 0] 1 0
r 1.201186627 _1_ RTR  --- 12 tcp 1040 [13a 1 0 800] ------- [0:0 9:0 30 1] [8 0] 1 0
f 1.201186627 _1_ RTR  --- 12 tcp 1040 [13a 1 0 800] ------- [0:0 9:0 29 9] [8 0] 1 0
r 1.203031627 _0_ AGT  --- 19 ack 40 [13a 0 1 800] ------- [9:0 0:0 29 0] [6 0] 2 0
s 1.203031627 _0_ AGT  --- 21 tcp 1040 [0 0 0 0] ------- [0:0 9:0 32 0] [13 0] 0 0
r 1.203031627 _0_ RTR  --- 21 tcp 1040 [0 0 0 0] ------- [0:0 9:0 32 0] [13 0] 0 0
s 1.203031627 _0_ AGT  --- 22 tcp 1040 [0 0 0 0] ------- [0:0 9:0 32 0] [14 0] 0 0
r 1.203031627 _0_ RTR  --- 22 tcp 1040 [0 0 0 0] ------- [0:0 9:0 32 0] [14 0] 0 0
s 1.203031627 _0_ RTR  --- 21 tcp 1040 [0 0 0 0] ------- [0:0 9:0 30 1] [13 0] 0 0
s 1.203031627 _0_ RTR  --- 22 tcp 1040 [0 0 0 0] ------- [0:0 9:0 30 1] [14 0] 0 0
r 1.204976960 _0_ AGT  --- 20 ack 40 [13a 0 1 800] ------- [9:0 0:0 29 0] [7 0] 2 0
s 1.204976960 _0_ AGT  --- 23 tcp 1040 [0 0 0 0] ------- [0:0 9:0 32 0] [15 0] 0 0
r 1.204976960 _0_ RTR  --- 23 tcp 1040 [0 0 0 0] ------- [0:0 9:0 32 0] [15 0] 0 0
s 1.204976960 _0_ AGT  --- 24 tcp 1040 [0 0 0 0] ------- [0:0 9:0 32 0] [16 0] 0 0
r 1.204976960 _0_ RTR  --- 24 tcp 1040 [0 0 0 0] ------- [0:0 9:0 32 0] [16 0] 0 0
s 1.204976960 _0_ RTR  --- 23 tcp 1040 [0 0 0 0] ------- [0:0 9:0 30 1] [15 0] 0 0
s 1.204976960 _0_ RTR  --- 24 tcp 1040 [0 0 0 0] ------- [0:0 9:0 30 1] [16 0] 0 0
r 1.214863529 _9_ AGT  --- 12 tcp 1040 [13a 9 1 800] ------- [0:0 9:0 29 9] [8 0] 2 0
s 1.214863529 _9_ AGT  --- 25 ack 40 [0 0 0 0] ------- [9:0 0:0 32 0] [8 0] 0 0
r 1.214863529 _9_ RTR  --- 25 ack 40 [0 0 0 0] ------- [9:0 0:0 32 0] [8 0] 0 0
s 1.214863529 _9_ RTR  --- 25 ack 40 [0 0 0 0] ------- [9:0 0:0 30 1] [8 0] 0 0
r 1.216909765 _1_ RTR  --- 25 ack 40 [13a 1 9 800] ------- [9:0 0:0 30 1] [8 0] 1 0
f 1.216909765 _1_ RTR  --- 25 ack 40 [13a 1 9 800] ------- [9:0 0:0 29 0] [8 0] 1 0
r 1.219114765 _0_ AGT  --- 25 ack 40 [13a 0 1 800] ------- [9:0 0:0 29 0] [8 0] 2 0
s 1.219114765 _0_ AGT  --- 26 tcp 1040 [0 0 0 0] ------- [0:0 9:0 32 0] [17 0] 0 0
r 1.219114765 _0_ RTR  --- 26 tcp 1040 [0 0 0 0] ------- [0:0 9:0 32 0] [17 0] 0 0
s 1.219114765 _0_ AGT  --- 27 tcp 1040 [0 0 0 0] ------- [0:0 9:0 32 0] [18 0] 0 0
r 1.219114765 _0_ RTR  --- 27 tcp 1040 [0 0 0 0] ------- [0:0 9:0 32 0] [18 0] 0 0
s 1.219114765 _0_ RTR  --- 26 tcp 1040 [0 0 0 0] ------- [0:0 9:0 30 1] [17 0] 0 0
s 1.219114765 _0_ RTR  --- 27 tcp 1040 [0 0 0 0] ------- [0:0 9:0 30 1] [18 0] 0 0
r 1.229039765 _1_ RTR  --- 15 tcp 1040 [13a 1 0 800] ------- [0:0 9:0 30 1] [9 0] 1 0
f 1.229039765 _1_ RTR  --- 15 tcp 1040 [13a 1 0 800] ------- [0:0 9:0 29 9] [9 0] 1 0
r 1.239305099 _1_ RTR  --- 16 tcp 1040 [13a 1 0 800] ------- [0:0 9:0 30 1] [10 0] 1 0
f 1.239305099 _1_ RTR  --- 16 tcp 1040 [13a 1 0 800] ------- [0:0 9:0 29 9] [10 0] 1 0
r 1.249211335 _9_ AGT  --- 15 tcp 1040 [13a 9 1 800] ------- [0:0 9:0 29 9] [9 0] 2 0
s 1.249211335 _9_ AGT  --- 28 ack 40 [0 0 0 0] ------- [9:0 0:0 32 0] [9 0] 0 0
r 1.249211335 _9_ RTR  --- 28 ack 40 [0 0 0 0] ------- [9:0 0:0 32 0] [9 0] 0 0
s 1.249211335 _9_ RTR  --- 28 ack 40 [0 0 0 0] ------- [9:0 0:0 30 1] [9 0] 0 0
r 1.260424316 _9_ AGT  --- 16 tcp 1040 [13a 9 1 800] ------- [0:0 9:0 29 9] [10 0] 2 0
s 1.260424316 _9_ AGT  --- 29 ack 40 [0 0 0 0] ------- [9:0 0:0 32 0] [10 0] 0 0
r 1.260424316 _9_ RTR  --- 29 ack 40 [0 0 0 0] ------- [9:0 0:0 32 0] [10 0] 0 0
s 1.260424316 _9_ RTR  --- 29 ack 40 [0 0 0 0] ------- [9:0 0:0 30 1] [10 0] 0 0
r 1.262630552 _1_ RTR  --- 28 ack 40 [13a 1 9 800] ------- [9:0 0:0 30 1] [9 0] 1 0
f 1.262630552 _1_ RTR  --- 28 ack 40 [13a 1 9 800] ------- [9:0 0:0 29 0] [9 0] 1 0
r 1.264677534 _1_ RTR  --- 29 ack 40 [13a 1 9 800] ------- [9:0 0:0 30 1] [10 0] 1 0
f 1.264677534 _1_ RTR  --- 29 ack 40 [13a 1 9 800] ------- [9:0 0:0 29 0] [10 0] 1 0
r 1.274572731 _1_ RTR  --- 17 tcp 1040 [13a 1 0 800] ------- [0:0 9:0 30 1] [11 0] 1 0
f 1.274572731 _1_ RTR  --- 17 tcp 1040 [13a 1 0 800] ------- [0:0 9:0 29 9] [11 0] 1 0
r 1.284558065 _1_ RTR  --- 18 tcp 1040 [13a 1 0 800] ------- [0:0 9:0 30 1] [12 0] 1 0
f 1.284558065 _1_ RTR  --- 18 tcp 1040 [13a 1 0 800] ------- [0:0 9:0 29 9] [12 0] 1 0
r 1.286523065 _0_ AGT  --- 28 ack 40 [13a 0 1 800] ------- [9:0 0:0 29 0] [9 0] 2 0
s 1.286523065 _0_ AGT  --- 30 tcp 1040 [0 0 0 0] ------- [0:0 9:0 32 0] [19 0] 0 0
r 1.286523065 _0_ RTR  --- 30 tcp 1040 [0 0 0 0] ------- [0:0 9:0 32 0] [19 0] 0 0
s 1.286523065 _0_ AGT  --- 31 tcp 1040 [0 0 0 0] ------- [0:0 9:0 32 0] [20 0] 0 0
r 1.286523065 _0_ RTR  --- 31 tcp 1040 [0 0 0 0] ------- [0:0 9:0 32 0] [20 0] 0 0
s 1.286523065 _0_ RTR  --- 30 tcp 1040 [0 0 0 0] ------- [0:0 9:0 30 1] [19 0] 0 0
s 1.286523065 _0_ RTR  --- 31 tcp 1040 [0 0 0 0] ------- [0:0 9:0 30 1] [20 0] 0 0
r 1.296668065 _1_ RTR  --- 21 tcp 1040 [13a 1 0 800] ------- [0:0 9:0 30 1] [13 0] 1 0
f 1.296668065 _1_ RTR  --- 21 tcp 1040 [13a 1 0 800] ------- [0:0 9:0 29 9] [13 0] 1 0
r 1.298593065 _0_ AGT  --- 29 ack 40 [13a 0 1 800] ------- [9:0 0:0 29 0] [10 0] 2 0
s 1.298593065 _0_ AGT  --- 32 tcp 1040 [0 0 0 0] ------- [0:0 9:0 32 0] [21 0] 0 0
r 1.298593065 _0_ RTR  --- 32 tcp 1040 [0 0 0 0] ------- [0:0 9:0 32 0] [21 0] 0 0
s 1.298593065 _0_ AGT  --- 33 tcp 1040 [0 0 0 0] ------- [0:0 9:0 32 0] [22 0] 0 0
r 1.298593065 _0_ RTR  --- 33 tcp 1040 [0 0 0 0] ------- [0:0 9:0 32 0] [22 0] 0 0
s 1.298593065 _0_ RTR  --- 32 tcp 1040 [0 0 0 0] ------- [0:0 9:0 30 1] [21 0] 0 0
s 1.298593065 _0_ RTR  --- 33 tcp 1040 [0 0 0 0] ------- [0:0 9:0 30 1] [22 0] 0 0
r 1.308458065 _1_ RTR  --- 22 tcp 1040 [13a 1 0 800] ------- [0:0 9:0 30 1] [14 0] 1 0
f 1.308458065 _1_ RTR  --- 22 tcp 1040 [13a 1 0 800] ------- [0:0 9:0 29 9] [14 0] 1 0
r 1.318424301 _9_ AGT  --- 17 tcp 1040 [13a 9 1 800] ------- [0:0 9:0 29 9] [11 0] 2 0
s 1.318424301 _9_ AGT  --- 34 ack 40 [0 0 0 0] ------- [9:0 0:0 32 0] [11 0] 0 0
r 1.318424301 _9_ RTR  --- 34 ack 40 [0 0 0 0] ------- [9:0 0:0 32 0] [11 0] 0 0
s 1.318424301 _9_ RTR  --- 34 ack 40 [0 0 0 0] ------- [9:0 0:0 30 1] [11 0] 0 0
r 1.320250537 _1_ RTR  --- 34 ack 40 [13a 1 9 800] ------- [9:0 0:0 30 1] [11 0] 1 0
f 1.320250537 _1_ RTR  --- 34 ack 40 [13a 1 9 800] ------- [9:0 0:0 29 0] [11 0] 1 0
r 1.330216773 _9_ AGT  --- 18 tcp 1040 [13a 9 1 800] ------- [0:0 9:0 29 9] [12 0] 2 0
s 1.330216773 _9_ AGT  --- 35 ack 40 [0 0 0 0] ------- [9:0 0:0 32 0] [12 0] 0 0
r 1.330216773 _9_ RTR  --- 35 ack 40 [0 0 0 0] ------- [9:0 0:0 32 0] [12 0] 0 0
s 1.330216773 _9_ RTR  --- 35 ack 40 [0 0 0 0] ------- [9:0 0:0 30 1] [12 0] 0 0
r 1.332283009 _1_ RTR  --- 35 ack 40 [13a 1 9 800] ------- [9:0 0:0 30 1] [12 0] 1 0
f 1.332283009 _1_ RTR  --- 35 ack 40 [13a 1 9 800] ------- [9:0 0:0 29 0] [12 0] 1 0
r 1.342178206 _1_ RTR  --- 23 tcp 1040 [13a 1 0 800] ------- [0:0 9:0 30 1] [15 0] 1 0
f 1.342178206 _1_ RTR  --- 23 tcp 1040 [13a 1 0 800] ------- [0:0 9:0 29 9] [15 0] 1 0
r 1.352044442 _9_ AGT  --- 21 tcp 1040 [13a 9 1 800] ------- [0:0 9:0 29 9] [13 0] 2 0
s 1.352044442 _9_ AGT  --- 36 ack 40 [0 0 0 0] ------- [9:0 0:0 32 0] [13 0] 0 0
r 1.352044442 _9_ RTR  --- 36 ack 40 [0 0 0 0] ------- [9:0 0:0 32 0] [13 0] 0 0
s 1.352044442 _9_ RTR  --- 36 ack 40 [0 0 0 0] ------- [9:0 0:0 30 1] [13 0] 0 0
r 1.362191424 _9_ AGT  --- 22 tcp 1040 [13a 9 1 800] ------- [0:0 9:0 29 9] [14 0] 2 0
s 1.362191424 _9_ AGT  --- 37 ack 40 [0 0 0 0] ------- [9:0 0:0 32 0] [14 0] 0 0
r 1.362191424 _9_ RTR  --- 37 ack 40 [0 0 0 0] ------- [9:0 0:0 32 0] [14 0] 0 0
s 1.362191424 _9_ RTR  --- 37 ack 40 [0 0 0 0] ------- [9:0 0:0 30 1] [14 0] 0 0
r 1.364057660 _1_ RTR  --- 36 ack 40 [13a 1 9 800] ------- [9:0 0:0 30 1] [13 0] 1 0
f 1.364057660 _1_ RTR  --- 36 ack 40 [13a 1 9 800] ------- [9:0 0:0 29 0] [13 0] 1 0
r 1.365904641 _1_ RTR  --- 37 ack 40 [13a 1 9 800] ------- [9:0 0:0 30 1] [14 0] 1 0
f 1.365904641 _1_ RTR  --- 37 ack 40 [13a 1 9 800] ------- [9:0 0:0 29 0] [14 0] 1 0
r 1.367849641 _0_ AGT  --- 34 ack 40 [13a 0 1 800] ------- [9:0 0:0 29 0] [11 0] 2 0
s 1.367849641 _0_ AGT  --- 38 tcp 1040 [0 0 0 0] ------- [0:0 9:0 32 0] [23 0] 0 0
r 1.367849641 _0_ RTR  --- 38 tcp 1040 [0 0 0 0] ------- [0:0 9:0 32 0] [23 0] 0 0
s 1.367849641 _0_ AGT  --- 39 tcp 1040 [0 0 0 0] ------- [0:0 9:0 32 0] [24 0] 0 0
r 1.367849641 _0_ RTR  --- 39 tcp 1040 [0 0 0 0] ------- [0:0 9:0 32 0] [24 0] 0 0
s 1.367849641 _0_ RTR  --- 38 tcp 1040 [0 0 0 0] ------- [0:0 9:0 30 1] [23 0] 0 0
s 1.367849641 _0_ RTR  --- 39 tcp 1040 [0 0 0 0] ------- [0:0 9:0 30 1] [24 0] 0 0
r 1.369774975 _0_ AGT  --- 35 ack 40 [13a 0 1 800] ------- [9:0 0:0 29 0] [12 0] 2 0
s 1.369774975 _0_ AGT  --- 40 tcp 1040 [0 0 0 0] ------- [0:0 9:0 32 0] [25 0] 0 0
r 1.369774975 _0_ RTR  --- 40 tcp 1040 [0 0 0 0] ------- [0:0 9:0 32 0] [25 0] 0 0
s 1.369774975 _0_ AGT  --- 41 tcp 1040 [0 0 0 0] ------- [0:0 9:0 32 0] [26 0] 0 0
r 1.369774975 _0_ RTR  --- 41 tcp 1040 [0 0 0 0] ------- [0:0 9:0 32 0] [26 0] 0 0
s 1.369774975 _0_ RTR  --- 40 tcp 1040 [0 0 0 0] ------- [0:0 9:0 30 1] [25 0] 0 0
s 1.369774975 _0_ RTR  --- 41 tcp 1040 [0 0 0 0] ------- [0:0 9:0 30 1] [26 0] 0 0
r 1.379601544 _9_ AGT  --- 23 tcp 1040 [13a 9 1 800] ------- [0:0 9:0 29 9] [15 0] 2 0
s 1.379601544 _9_ AGT  --- 42 ack 40 [0 0 0 0] ------- [9:0 0:0 32 0] [15 0] 0 0
r 1.379601544 _9_ RTR  --- 42 ack 40 [0 0 0 0] ------- [9:0 0:0 32 0] [15 0] 0 0
s 1.379601544 _9_ RTR  --- 42 ack 40 [0 0 0 0] ------- [9:0 0:0 30 1] [15 0] 0 0
r 1.381487289 _0_ AGT  --- 36 ack 40 [13a 0 1 800] ------- [9:0 0:0 29 0] [13 0] 2 0
s 1.381487289 _0_ AGT  --- 43 tcp 1040 [0 0 0 0] ------- [0:0 9:0 32 0] [27 0] 0 0
r 1.381487289 _0_ RTR  --- 43 tcp 1040 [0 0 0 0] ------- [0:0 9:0 32 0] [27 0] 0 0
s 1.381487289 _0_ AGT  --- 44 tcp 1040 [0 0 0 0] ------- [0:0 9:0 32 0] [28 0] 0 0
r 1.381487289 _0_ RTR  --- 44 tcp 1040 [0 0 0 0] ------- [0:0 9:0 32 0] [28 0] 0 0
s 1.381487289 _0_ RTR  --- 43 tcp 1040 [0 0 0 0] ------- [0:0 9:0 30 1] [27 0] 0 0
s 1.381487289 _0_ RTR  --- 44 tcp 1040 [0 0 0 0] ------- [0:0 9:0 30 1] [28 0] 0 0
r 1.391632289 _1_ RTR  --- 24 tcp 1040 [13a 1 0 800] ------- [0:0 9:0 30 1] [16 0] 1 0
f 1.391632289 _1_ RTR  --- 24 tcp 1040 [13a 1 0 800] ------- [0:0 9:0 29 9] [16 0] 1 0
r 1.393609135 _1_ RTR  --- 42 ack 40 [13a 1 9 800] ------- [9:0 0:0 30 1] [15 0] 1 0
f 1.393609135 _1_ RTR  --- 42 ack 40 [13a 1 9 800] ------- [9:0 0:0 29 0] [15 0] 1 0
r 1.395514135 _0_ AGT  --- 37 ack 40 [13a 0 1 800] ------- [9:0 0:0 29 0] [14 0] 2 0
s 1.395514135 _0_ AGT  --- 45 tcp 1040 [0 0 0 0] ------- [0:0 9:0 32 0] [29 0] 0 0
r 1.395514135 _0_ RTR  --- 45 tcp 1040 [0 0 0 0] ------- [0:0 9:0 32 0] [29 0] 0 0
s 1.395514135 _0_ AGT  --- 46 tcp 1040 [0 0 0 0] ------- [0:0 9:0 32 0] [30 0] 0 0
r 1.395514135 _0_ RTR  --- 46 tcp 1040 [0 0 0 0] ------- [0:0 9:0 32 0] [30 0] 0 0
s 1.395514135 _0_ RTR  --- 45 tcp 1040 [0 0 0 0] ------- [0:0 9:0 30 1] [29 0] 0 0
s 1.395514135 _0_ RTR  --- 46 tcp 1040 [0 0 0 0] ------- [0:0 9:0 30 1] [30 0] 0 0
r 1.405360704 _9_ AGT  --- 24 tcp 1040 [13a 9 1 800] ------- [0:0 9:0 29 9] [16 0] 2 0
s 1.405360704 _9_ AGT  --- 47 ack 40 [0 0 0 0] ------- [9:0 0:0 32 0] [16 0] 0 0
r 1.405360704 _9_ RTR  --- 47 ack 40 [0 0 0 0] ------- [9:0 0:0 32 0] [16 0] 0 0
s 1.405360704 _9_ RTR  --- 47 ack 40 [0 0 0 0] ------- [9:0 0:0 30 1] [16 0] 0 0
r 1.407206450 _0_ AGT  --- 42 ack 40 [13a 0 1 800] ------- [9:0 0:0 29 0] [15 0] 2 0
s 1.407206450 _0_ AGT  --- 48 tcp 1040 [0 0 0 0] ------- [0:0 9:0 32 0] [31 0] 0 0
r 1.407206450 _0_ RTR  --- 48 tcp 1040 [0 0 0 0] ------- [0:0 9:0 32 0] [31 0] 0 0