n -t * -s 0  -x 100 -y 100 -Z 0 -z 30  -v circle -c black
n -t * -s 1  -x 100 -y 200 -Z 0 -z 30  -v circle -c black
n -t * -s 2  -x 100 -y 300 -Z 0 -z 30  -v circle -c black
n -t * -s 3  -x 100 -y 400 -Z 0 -z 30  -v circle -c black
n -t * -s 4  -x 200 -y 100 -Z 0 -z 30  -v circle -c black
n -t * -s 5  -x 200 -y 200 -Z 0 -z 30  -v circle -c black
n -t * -s 6  -x 200 -y 300 -Z 0 -z 30  -v circle -c black
n -t * -s 7  -x 200 -y 400 -Z 0 -z 30  -v circle -c black
n -t * -s 8  -x 300 -y 200 -Z 0 -z 30  -v circle -c black
n -t * -s 9  -x 300 -y 300 -Z 0 -z 30  -v circle -c black
V -t * -v 1.0a5 -a 0
W -t * -x 500 -y 500
A -t * -n 1 -p 0 -o 0x7fffffff -c 30 -a 1
A -t * -h 1 -m 1073741823 -s 0
+ -t 1.000000000 -s 0 -d -1 -p tcp -e 40 -c 2 -a 0 -i 0 -k AGT 
- -t 1.000000000 -s 0 -d -1 -p tcp -e 40 -c 2 -a 0 -i 0 -k AGT
h -t 1.000000000 -s 0 -d -1 -p tcp -e 40 -c 2 -a 0 -i 0 -k AGT
+ -t 1.000000000 -s 0 -d -1 -p AODV -e 48 -c 2 -a 0 -i 0 -k RTR 
- -t 1.000000000 -s 0 -d -1 -p AODV -e 48 -c 2 -a 0 -i 0 -k RTR
h -t 1.000000000 -s 0 -d -1 -p AODV -e 48 -c 2 -a 0 -i 0 -k RTR
r -t 1.000988333 -s 1 -d -1 -p AODV -e 48 -c 2 -a 0 -i 0 -k RTR
r -t 1.000988333 -s 4 -d -1 -p AODV -e 48 -c 2 -a 0 -i 0 -k RTR
r -t 1.000988471 -s 5 -d -1 -p AODV -e 48 -c 2 -a 0 -i 0 -k RTR
r -t 1.000988667 -s 2 -d -1 -p AODV -e 48 -c 2 -a 0 -i 0 -k RTR
r -t 1.000988745 -s 6 -d -1 -p AODV -e 48 -c 2 -a 0 -i 0 -k RTR
r -t 1.000988745 -s 8 -d -1 -p AODV -e 48 -c 2 -a 0 -i 0 -k RTR
+ -t 1.001869560 -s 1 -d -1 -p AODV -e 48 -c 2 -a 0 -i 0 -k RTR 
- -t 1.001869560 -s 1 -d -1 -p AODV -e 48 -c 2 -a 0 -i 0 -k RTR
h -t 1.001869560 -s 1 -d -1 -p AODV -e 48 -c 2 -a 0 -i 0 -k RTR
r -t 1.003177893 -s 0 -d -1 -p AODV -e 48 -c 2 -a 0 -i 0 -k RTR
r -t 1.003177893 -s 2 -d -1 -p AODV -e 48 -c 2 -a 0 -i 0 -k RTR
r -t 1.003177893 -s 5 -d -1 -p AODV -e 48 -c 2 -a 0 -i 0 -k RTR
r -t 1.003178031 -s 4 -d -1 -p AODV -e 48 -c 2 -a 0 -i 0 -k RTR
r -t 1.003178031 -s 6 -d -1 -p AODV -e 48 -c 2 -a 0 -i 0 -k RTR
r -t 1.003178227 -s 3 -d -1 -p AODV -e 48 -c 2 -a 0 -i 0 -k RTR
r -t 1.003178227 -s 8 -d -1 -p AODV -e 48 -c 2 -a 0 -i 0 -k RTR
r -t 1.003178305 -s 7 -d -1 -p AODV -e 48 -c 2 -a 0 -i 0 -k RTR
r -t 1.003178305 -s 9 -d -1 -p AODV -e 48 -c 2 -a 0 -i 0 -k RTR
+ -t 1.003178305 -s 9 -d 1 -p AODV -e 44 -c 2 -a 0 -i 0 -k RTR 
- -t 1.003178305 -s 9 -d 1 -p AODV -e 44 -c 2 -a 0 -i 0 -k RTR
h -t 1.003178305 -s 9 -d 1 -p AODV -e 44 -c 2 -a 0 -i 0 -k RTR
+ -t 1.003334763 -s 8 -d -1 -p AODV -e 48 -c 2 -a 0 -i 0 -k RTR 
- -t 1.003334763 -s 8 -d -1 -p AODV -e 48 -c 2 -a 0 -i 0 -k RTR
h -t 1.003334763 -s 8 -d -1 -p AODV -e 48 -c 2 -a 0 -i 0 -k RTR
+ -t 1.004118284 -s 2 -d -1 -p AODV -e 48 -c 2 -a 0 -i 0 -k RTR 
- -t 1.004118284 -s 2 -d -1 -p AODV -e 48 -c 2 -a 0 -i 0 -k RTR
h -t 1.004118284 -s 2 -d -1 -p AODV -e 48 -c 2 -a 0 -i 0 -k RTR
r -t 1.004443096 -s 5 -d -1 -p AODV -e 48 -c 2 -a 0 -i 0 -k RTR
r -t 1.004443096 -s 9 -d -1 -p AODV -e 48 -c 2 -a 0 -i 0 -k RTR
r -t 1.004443234 -s 6 -d -1 -p AODV -e 48 -c 2 -a 0 -i 0 -k RTR
r -t 1.004443234 -s 4 -d -1 -p AODV -e 48 -c 2 -a 0 -i 0 -k RTR
r -t 1.004443430 -s 1 -d -1 -p AODV -e 48 -c 2 -a 0 -i 0 -k RTR
r -t 1.004443508 -s 7 -d -1 -p AODV -e 48 -c 2 -a 0 -i 0 -k RTR
r -t 1.004443508 -s 2 -d -1 -p AODV -e 48 -c 2 -a 0 -i 0 -k RTR
r -t 1.004443508 -s 0 -d -1 -p AODV -e 48 -c 2 -a 0 -i 0 -k RTR
+ -t 1.004819759 -s 7 -d -1 -p AODV -e 48 -c 2 -a 0 -i 0 -k RTR 
- -t 1.004819759 -s 7 -d -1 -p AODV -e 48 -c 2 -a 0 -i 0 -k RTR
h -t 1.004819759 -s 7 -d -1 -p AODV -e 48 -c 2 -a 0 -i 0 -k RTR
+ -t 1.005400067 -s 4 -d -1 -p AODV -e 48 -c 2 -a 0 -i 0 -k RTR 
- -t 1.005400067 -s 4 -d -1 -p AODV -e 48 -c 2 -a 0 -i 0 -k RTR
h -t 1.005400067 -s 4 -d -1 -p AODV -e 48 -c 2 -a 0 -i 0 -k RTR
r -t 1.006440096 -s 1 -d -1 -p AODV -e 48 -c 2 -a 0 -i 0 -k RTR
r -t 1.006440096 -s 3 -d -1 -p AODV -e 48 -c 2 -a 0 -i 0 -k RTR
r -t 1.006440096 -s 6 -d -1 -p AODV -e 48 -c 2 -a 0 -i 0 -k RTR
r -t 1.006440234 -s 5 -d -1 -p AODV -e 48 -c 2 -a 0 -i 0 -k RTR
r -t 1.006440234 -s 7 -d -1 -p AODV -e 48 -c 2 -a 0 -i 0 -k RTR
r -t 1.006440430 -s 0 -d -1 -p AODV -e 48 -c 2 -a 0 -i 0 -k RTR
r -t 1.006440430 -s 9 -d -1 -p AODV -e 48 -c 2 -a 0 -i 0 -k RTR
r -t 1.006440508 -s 4 -d -1 -p AODV -e 48 -c 2 -a 0 -i 0 -k RTR
r -t 1.006440508 -s 8 -d -1 -p AODV -e 48 -c 2 -a 0 -i 0 -k RTR
r -t 1.007358568 -s 6 -d -1 -p AODV -e 48 -c 2 -a 0 -i 0 -k RTR
r -t 1.007358568 -s 3 -d -1 -p AODV -e 48 -c 2 -a 0 -i 0 -k RTR
r -t 1.007358706 -s 2 -d -1 -p AODV -e 48 -c 2 -a 0 -i 0 -k RTR
r -t 1.007358706 -s 9 -d -1 -p AODV -e 48 -c 2 -a 0 -i 0 -k RTR
r -t 1.007358901 -s 5 -d -1 -p AODV -e 48 -c 2 -a 0 -i 0 -k RTR
r -t 1.007358980 -s 1 -d -1 -p AODV -e 48 -c 2 -a 0 -i 0 -k RTR
r -t 1.007358980 -s 8 -d -1 -p AODV -e 48 -c 2 -a 0 -i 0 -k RTR
+ -t 1.008980026 -s 5 -d -1 -p AODV -e 48 -c 2 -a 0 -i 0 -k RTR 
- -t 1.008980026 -s 5 -d -1 -p AODV -e 48 -c 2 -a 0 -i 0 -k RTR
h -t 1.008980026 -s 5 -d -1 -p AODV -e 48 -c 2 -a 0 -i 0 -k RTR
+ -t 1.009153506 -s 6 -d -1 -p AODV -e 48 -c 2 -a 0 -i 0 -k RTR 
- -t 1.009153506 -s 6 -d -1 -p AODV -e 48 -c 2 -a 0 -i 0 -k RTR
h -t 1.009153506 -s 6 -d -1 -p AODV -e 48 -c 2 -a 0 -i 0 -k RTR
r -t 1.010208020 -s 4 -d -1 -p AODV -e 48 -c 2 -a 0 -i 0 -k RTR
r -t 1.010208020 -s 1 -d -1 -p AODV -e 48 -c 2 -a 0 -i 0 -k RTR
r -t 1.010208020 -s 6 -d -1 -p AODV -e 48 -c 2 -a 0 -i 0 -k RTR
r -t 1.010208020 -s 8 -d -1 -p AODV -e 48 -c 2 -a 0 -i 0 -k RTR
r -t 1.010208159 -s 2 -d -1 -p AODV -e 48 -c 2 -a 0 -i 0 -k RTR
r -t 1.010208159 -s 0 -d -1 -p AODV -e 48 -c 2 -a 0 -i 0 -k RTR
r -t 1.010208159 -s 9 -d -1 -p AODV -e 48 -c 2 -a 0 -i 0 -k RTR
r -t 1.010208354 -s 7 -d -1 -p AODV -e 48 -c 2 -a 0 -i 0 -k RTR
r -t 1.010208432 -s 3 -d -1 -p AODV -e 48 -c 2 -a 0 -i 0 -k RTR
+ -t 1.011541462 -s 3 -d -1 -p AODV -e 48 -c 2 -a 0 -i 0 -k RTR 
- -t 1.011541462 -s 3 -d -1 -p AODV -e 48 -c 2 -a 0 -i 0 -k RTR
h -t 1.011541462 -s 3 -d -1 -p AODV -e 48 -c 2 -a 0 -i 0 -k RTR
+ -t 1.011852395 -s 1 -d 0 -p AODV -e 44 -c 2 -a 0 -i 0 -k RTR 
- -t 1.011852395 -s 1 -d 0 -p AODV -e 44 -c 2 -a 0 -i 0 -k RTR
h -t 1.011852395 -s 1 -d 0 -p AODV -e 44 -c 2 -a 0 -i 0 -k RTR
r -t 1.013165199 -s 0 -d -1 -p AODV -e 48 -c 2 -a 0 -i 0 -k RTR
r -t 1.013165199 -s 5 -d -1 -p AODV -e 48 -c 2 -a 0 -i 0 -k RTR
r -t 1.013165337 -s 1 -d -1 -p AODV -e 48 -c 2 -a 0 -i 0 -k RTR
r -t 1.013165337 -s 8 -d -1 -p AODV -e 48 -c 2 -a 0 -i 0 -k RTR
r -t 1.013165533 -s 6 -d -1 -p AODV -e 48 -c 2 -a 0 -i 0 -k RTR
r -t 1.013165611 -s 2 -d -1 -p AODV -e 48 -c 2 -a 0 -i 0 -k RTR
r -t 1.013165611 -s 9 -d -1 -p AODV -e 48 -c 2 -a 0 -i 0 -k RTR
r -t 1.014083866 -s 5 -d -1 -p AODV -e 48 -c 2 -a 0 -i 0 -k RTR
r -t 1.014083866 -s 2 -d -1 -p AODV -e 48 -c 2 -a 0 -i 0 -k RTR
r -t 1.014083866 -s 7 -d -1 -p AODV -e 48 -c 2 -a 0 -i 0 -k RTR
r -t 1.014083866 -s 9 -d -1 -p AODV -e 48 -c 2 -a 0 -i 0 -k RTR
r -t 1.014084004 -s 3 -d -1 -p AODV -e 48 -c 2 -a 0 -i 0 -k RTR
r -t 1.014084004 -s 1 -d -1 -p AODV -e 48 -c 2 -a 0 -i 0 -k RTR
r -t 1.014084004 -s 8 -d -1 -p AODV -e 48 -c 2 -a 0 -i 0 -k RTR
r -t 1.014084199 -s 4 -d -1 -p AODV -e 48 -c 2 -a 0 -i 0 -k RTR
r -t 1.014084278 -s 0 -d -1 -p AODV -e 48 -c 2 -a 0 -i 0 -k RTR
r -t 1.016201004 -s 2 -d -1 -p AODV -e 48 -c 2 -a 0 -i 0 -k RTR
r -t 1.016201004 -s 7 -d -1 -p AODV -e 48 -c 2 -a 0 -i 0 -k RTR
r -t 1.016201142 -s 6 -d -1 -p AODV -e 48 -c 2 -a 0 -i 0 -k RTR
r -t 1.016201337 -s 1 -d -1 -p AODV -e 48 -c 2 -a 0 -i 0 -k RTR
r -t 1.016201416 -s 5 -d -1 -p AODV -e 48 -c 2 -a 0 -i 0 -k RTR
r -t 1.016201416 -s 9 -d -1 -p AODV -e 48 -c 2 -a 0 -i 0 -k RTR
+ -t 1.020017671 -s 0 -d 1 -p tcp -e 40 -c 2 -a 0 -i 0 -k RTR 
- -t 1.020017671 -s 0 -d 1 -p tcp -e 40 -c 2 -a 0 -i 0 -k RTR
h -t 1.020017671 -s 0 -d 1 -p tcp -e 40 -c 2 -a 0 -i 0 -k RTR
+ -t 1.022122671 -s 1 -d 9 -p tcp -e 40 -c 2 -a 0 -i 0 -k RTR 
- -t 1.022122671 -s 1 -d 9 -p tcp -e 40 -c 2 -a 0 -i 0 -k RTR
h -t 1.022122671 -s 1 -d 9 -p tcp -e 40 -c 2 -a 0 -i 0 -k RTR
r -t 1.024048907 -s 9 -d 9 -p tcp -e 40 -c 2 -a 0 -i 0 -k AGT
+ -t 1.024048907 -s 9 -d -1 -p ack -e 40 -c 2 -a 0 -i 1 -k AGT 
- -t 1.024048907 -s 9 -d -1 -p ack -e 40 -c 2 -a 0 -i 1 -k AGT
h -t 1.024048907 -s 9 -d -1 -p ack -e 40 -c 2 -a 0 -i 1 -k AGT
+ -t 1.024048907 -s 9 -d 1 -p ack -e 40 -c 2 -a 0 -i 1 -k RTR 
- -t 1.024048907 -s 9 -d 1 -p ack -e 40 -c 2 -a 0 -i 1 -k RTR
h -t 1.024048907 -s 9 -d 1 -p ack -e 40 -c 2 -a 0 -i 1 -k RTR
+ -t 1.026095143 -s 1 -d 0 -p ack -e 40 -c 2 -a 0 -i 1 -k RTR 
- -t 1.026095143 -s 1 -d 0 -p ack -e 40 -c 2 -a 0 -i 1 -k RTR
h -t 1.026095143 -s 1 -d 0 -p ack -e 40 -c 2 -a 0 -i 1 -k RTR
r -t 1.028500143 -s 0 -d 0 -p ack -e 40 -c 2 -a 0 -i 1 -k AGT
+ -t 1.028500143 -s 0 -d -1 -p tcp -e 1040 -c 2 -a 0 -i 2 -k AGT 
- -t 1.028500143 -s 0 -d -1 -p tcp -e 1040 -c 2 -a 0 -i 2 -k AGT
h -t 1.028500143 -s 0 -d -1 -p tcp -e 1040 -c 2 -a 0 -i 2 -k AGT
+ -t 1.028500143 -s 0 -d -1 -p tcp -e 1040 -c 2 -a 0 -i 3 -k AGT 
- -t 1.028500143 -s 0 -d -1 -p tcp -e 1040 -c 2 -a 0 -i 3 -k AGT
h -t 1.028500143 -s 0 -d -1 -p tcp -e 1040 -c 2 -a 0 -i 3 -k AGT
+ -t 1.028500143 -s 0 -d 1 -p tcp -e 1040 -c 2 -a 0 -i 2 -k RTR 
- -t 1.028500143 -s 0 -d 1 -p tcp -e 1040 -c 2 -a 0 -i 2 -k RTR
h -t 1.028500143 -s 0 -d 1 -p tcp -e 1040 -c 2 -a 0 -i 2 -k RTR
+ -t 1.028500143 -s 0 -d 1 -p tcp -e 1040 -c 2 -a 0 -i 3 -k RTR 
- -t 1.028500143 -s 0 -d 1 -p tcp -e 1040 -c 2 -a 0 -i 3 -k RTR
h -t 1.028500143 -s 0 -d 1 -p tcp -e 1040 -c 2 -a 0 -i 3 -k RTR
+ -t 1.038445143 -s 1 -d 9 -p tcp -e 1040 -c 2 -a 0 -i 2 -k RTR 
- -t 1.038445143 -s 1 -d 9 -p tcp -e 1040 -c 2 -a 0 -i 2 -k RTR
h -t 1.038445143 -s 1 -d 9 -p tcp -e 1040 -c 2 -a 0 -i 2 -k RTR
r -t 1.048511379 -s 9 -d 9 -p tcp -e 1040 -c 2 -a 0 -i 2 -k AGT
+ -t 1.048511379 -s 9 -d -1 -p ack -e 40 -c 2 -a 0 -i 4 -k AGT 
- -t 1.048511379 -s 9 -d -1 -p ack -e 40 -c 2 -a 0 -i 4 -k AGT
h -t 1.048511379 -s 9 -d -1 -p ack -e 40 -c 2 -a 0 -i 4 -k AGT
+ -t 1.048511379 -s 9 -d 1 -p ack -e 40 -c 2 -a 0 -i 4 -k RTR 
- -t 1.048511379 -s 9 -d 1 -p ack -e 40 -c 2 -a 0 -i 4 -k RTR
h -t 1.048511379 -s 9 -d 1 -p ack -e 40 -c 2 -a 0 -i 4 -k RTR
+ -t 1.050617615 -s 1 -d 0 -p ack -e 40 -c 2 -a 0 -i 4 -k RTR 
- -t 1.050617615 -s 1 -d 0 -p ack -e 40 -c 2 -a 0 -i 4 -k RTR
h -t 1.050617615 -s 1 -d 0 -p ack -e 40 -c 2 -a 0 -i 4 -k RTR
r -t 1.052722615 -s 0 -d 0 -p ack -e 40 -c 2 -a 0 -i 4 -k AGT
+ -t 1.052722615 -s 0 -d -1 -p tcp -e 1040 -c 2 -a 0 -i 5 -k AGT 
- -t 1.052722615 -s 0 -d -1 -p tcp -e 1040 -c 2 -a 0 -i 5 -k AGT
h -t 1.052722615 -s 0 -d -1 -p tcp -e 1040 -c 2 -a 0 -i 5 -k AGT
+ -t 1.052722615 -s 0 -d -1 -p tcp -e 1040 -c 2 -a 0 -i 6 -k AGT 
- -t 1.052722615 -s 0 -d -1 -p tcp -e 1040 -c 2 -a 0 -i 6 -k AGT
h -t 1.052722615 -s 0 -d -1 -p tcp -e 1040 -c 2 -a 0 -i 6 -k AGT
+ -t 1.052722615 -s 0 -d 1 -p tcp -e 1040 -c 2 -a 0 -i 5 -k RTR 
- -t 1.052722615 -s 0 -d 1 -p tcp -e 1040 -c 2 -a 0 -i 5 -k RTR
h -t 1.052722615 -s 0 -d 1 -p tcp -e 1040 -c 2 -a 0 -i 5 -k RTR
+ -t 1.052722615 -s 0 -d 1 -p tcp -e 1040 -c 2 -a 0 -i 6 -k RTR 
- -t 1.052722615 -s 0 -d 1 -p tcp -e 1040 -c 2 -a 0 -i 6 -k RTR
h -t 1.052722615 -s 0 -d 1 -p tcp -e 1040 -c 2 -a 0 -i 6 -k RTR
+ -t 1.062607615 -s 1 -d 9 -p tcp -e 1040 -c 2 -a 0 -i 3 -k RTR 
- -t 1.062607615 -s 1 -d 9 -p tcp -e 1040 -c 2 -a 0 -i 3 -k RTR
h -t 1.062607615 -s 1 -d 9 -p tcp -e 1040 -c 2 -a 0 -i 3 -k RTR
r -t 1.072653851 -s 9 -d 9 -p tcp -e 1040 -c 2 -a 0 -i 3 -k AGT
+ -t 1.072653851 -s 9 -d -1 -p ack -e 40 -c 2 -a 0 -i 7 -k AGT 
- -t 1.072653851 -s 9 -d -1 -p ack -e 40 -c 2 -a 0 -i 7 -k AGT
h -t 1.072653851 -s 9 -d -1 -p ack -e 40 -c 2 -a 0 -i 7 -k AGT
+ -t 1.072653851 -s 9 -d 1 -p ack -e 40 -c 2 -a 0 -i 7 -k RTR 
- -t 1.072653851 -s 9 -d 1 -p ack -e 40 -c 2 -a 0 -i 7 -k RTR
h -t 1.072653851 -s 9 -d 1 -p ack -e 40 -c 2 -a 0 -i 7 -k RTR
+ -t 1.074540087 -s 1 -d 0 -p ack -e 40 -c 2 -a 0 -i 7 -k RTR 
- -t 1.074540087 -s 1 -d 0 -p ack -e 40 -c 2 -a 0 -i 7 -k RTR
h -t 1.074540087 -s 1 -d 0 -p ack -e 40 -c 2 -a 0 -i 7 -k RTR
r -t 1.076485087 -s 0 -d 0 -p ack -e 40 -c 2 -a 0 -i 7 -k AGT
+ -t 1.076485087 -s 0 -d -1 -p tcp -e 1040 -c 2 -a 0 -i 8 -k AGT 
- -t 1.076485087 -s 0 -d -1 -p tcp -e 1040 -c 2 -a 0 -i 8 -k AGT
h -t 1.076485087 -s 0 -d -1 -p tcp -e 1040 -c 2 -a 0 -i 8 -k AGT
+ -t 1.076485087 -s 0 -d -1 -p tcp -e 1040 -c 2 -a 0 -i 9 -k AGT 
- -t 1.076485087 -s 0 -d -1 -p tcp -e 1040 -c 2 -a 0 -i 9 -k AGT
h -t 1.076485087 -s 0 -d -1 -p tcp -e 1040 -c 2 -a 0 -i 9 -k AGT
+ -t 1.076485087 -s 0 -d 1 -p tcp -e 1040 -c 2 -a 0 -i 8 -k RTR 
- -t 1.076485087 -s 0 -d 1 -p tcp -e 1040 -c 2 -a 0 -i 8 -k RTR
h -t 1.076485087 -s 0 -d 1 -p tcp -e 1040 -c 2 -a 0 -i 8 -k RTR
+ -t 1.076485087 -s 0 -d 1 -p tcp -e 1040 -c 2 -a 0 -i 9 -k RTR 
- -t 1.076485087 -s 0 -d 1 -p tcp -e 1040 -c 2 -a 0 -i 9 -k RTR
h -t 1.076485087 -s 0 -d 1 -p tcp -e 1040 -c 2 -a 0 -i 9 -k RTR
+ -t 1.086370087 -s 1 -d 9 -p tcp -e 1040 -c 2 -a 0 -i 5 -k RTR 
- -t 1.086370087 -s 1 -d 9 -p tcp -e 1040 -c 2 -a 0 -i 5 -k RTR
h -t 1.086370087 -s 1 -d 9 -p tcp -e 1040 -c 2 -a 0 -i 5 -k RTR
r -t 1.096236323 -s 9 -d 9 -p tcp -e 1040 -c 2 -a 0 -i 5 -k AGT
+ -t 1.096236323 -s 9 -d -1 -p ack -e 40 -c 2 -a 0 -i 10 -k AGT 
- -t 1.096236323 -s 9 -d -1 -p ack -e 40 -c 2 -a 0 -i 10 -k AGT
h -t 1.096236323 -s 9 -d -1 -p ack -e 40 -c 2 -a 0 -i 10 -k AGT
+ -t 1.096236323 -s 9 -d 1 -p ack -e 40 -c 2 -a 0 -i 10 -k RTR 
- -t 1.096236323 -s 9 -d 1 -p ack -e 40 -c 2 -a 0 -i 10 -k RTR
h -t 1.096236323 -s 9 -d 1 -p ack -e 40 -c 2 -a 0 -i 10 -k RTR
+ -t 1.098182559 -s 1 -d 0 -p ack -e 40 -c 2 -a 0 -i 10 -k RTR 
- -t 1.098182559 -s 1 -d 0 -p ack -e 40 -c 2 -a 0 -i 10 -k RTR
h -t 1.098182559 -s 1 -d 0 -p ack -e 40 -c 2 -a 0 -i 10 -k RTR
r -t 1.100247559 -s 0 -d 0 -p ack -e 40 -c 2 -a 0 -i 10 -k AGT
+ -t 1.100247559 -s 0 -d -1 -p tcp -e 1040 -c 2 -a 0 -i 11 -k AGT 
- -t 1.100247559 -s 0 -d -1 -p tcp -e 1040 -c 2 -a 0 -i 11 -k AGT
h -t 1.100247559 -s 0 -d -1 -p tcp -e 1040 -c 2 -a 0 -i 11 -k AGT
+ -t 1.100247559 -s 0 -d -1 -p tcp -e 1040 -c 2 -a 0 -i 12 -k AGT 
- -t 1.100247559 -s 0 -d -1 -p tcp -e 1040 -c 2 -a 0 -i 12 -k AGT
h -t 1.100247559 -s 0 -d -1 -p tcp -e 1040 -c 2 -a 0 -i 12 -k AGT
+ -t 1.100247559 -s 0 -d 1 -p tcp -e 1040 -c 2 -a 0 -i 11 -k RTR 
- -t 1.100247559 -s 0 -d 1 -p tcp -e 1040 -c 2 -a 0 -i 11 -k RTR
h -t 1.100247559 -s 0 -d 1 -p tcp -e 1040 -c 2 -a 0 -i 11 -k RTR
+ -t 1.100247559 -s 0 -d 1 -p tcp -e 1040 -c 2 -a 0 -i 12 -k RTR 
- -t 1.100247559 -s 0 -d 1 -p tcp -e 1040 -c 2 -a 0 -i 12 -k RTR
h -t 1.100247559 -s 0 -d 1 -p tcp -e 1040 -c 2 -a 0 -i 12 -k RTR
+ -t 1.110172559 -s 1 -d 9 -p tcp -e 1040 -c 2 -a 0 -i 6 -k RTR 
- -t 1.110172559 -s 1 -d 9 -p tcp -e 1040 -c 2 -a 0 -i 6 -k RTR
h -t 1.110172559 -s 1 -d 9 -p tcp -e 1040 -c 2 -a 0 -i 6 -k RTR
+ -t 1.120017893 -s 1 -d 9 -p tcp -e 1040 -c 2 -a 0 -i 8 -k RTR 
- -t 1.120017893 -s 1 -d 9 -p tcp -e 1040 -c 2 -a 0 -i 8 -k RTR
h -t 1.120017893 -s 1 -d 9 -p tcp -e 1040 -c 2 -a 0 -i 8 -k RTR
r -t 1.130024129 -s 9 -d 9 -p tcp -e 1040 -c 2 -a 0 -i 6 -k AGT
+ -t 1.130024129 -s 9 -d -1 -p ack -e 40 -c 2 -a 0 -i 13 -k AGT 
- -t 1.130024129 -s 9 -d -1 -p ack -e 40 -c 2 -a 0 -i 13 -k AGT
h -t 1.130024129 -s 9 -d -1 -p ack -e 40 -c 2 -a 0 -i 13 -k AGT
+ -t 1.130024129 -s 9 -d 1 -p ack -e 40 -c 2 -a 0 -i 13 -k RTR 
- -t 1.130024129 -s 9 -d 1 -p ack -e 40 -c 2 -a 0 -i 13 -k RTR
h -t 1.130024129 -s 9 -d 1 -p ack -e 40 -c 2 -a 0 -i 13 -k RTR
r -t 1.139971110 -s 9 -d 9 -p tcp -e 1040 -c 2 -a 0 -i 8 -k AGT
+ -t 1.139971110 -s 9 -d -1 -p ack -e 40 -c 2 -a 0 -i 14 -k AGT 
- -t 1.139971110 -s 9 -d -1 -p ack -e 40 -c 2 -a 0 -i 14 -k AGT
h -t 1.139971110 -s 9 -d -1 -p ack -e 40 -c 2 -a 0 -i 14 -k AGT
+ -t 1.139971110 -s 9 -d 1 -p ack -e 40 -c 2 -a 0 -i 14 -k RTR 
- -t 1.139971110 -s 9 -d 1 -p ack -e 40 -c 2 -a 0 -i 14 -k RTR
h -t 1.139971110 -s 9 -d 1 -p ack -e 40 -c 2 -a 0 -i 14 -k RTR
+ -t 1.141917346 -s 1 -d 0 -p ack -e 40 -c 2 -a 0 -i 13 -k RTR 
- -t 1.141917346 -s 1 -d 0 -p ack -e 40 -c 2 -a 0 -i 13 -k RTR
h -t 1.141917346 -s 1 -d 0 -p ack -e 40 -c 2 -a 0 -i 13 -k RTR
+ -t 1.143784328 -s 1 -d 0 -p ack -e 40 -c 2 -a 0 -i 14 -k RTR 
- -t 1.143784328 -s 1 -d 0 -p ack -e 40 -c 2 -a 0 -i 14 -k RTR
h -t 1.143784328 -s 1 -d 0 -p ack -e 40 -c 2 -a 0 -i 14 -k RTR
r -t 1.145769328 -s 0 -d 0 -p ack -e 40 -c 2 -a 0 -i 13 -k AGT
+ -t 1.145769328 -s 0 -d -1 -p tcp -e 1040 -c 2 -a 0 -i 15 -k AGT 
- -t 1.145769328 -s 0 -d -1 -p tcp -e 1040 -c 2 -a 0 -i 15 -k AGT
h -t 1.145769328 -s 0 -d -1 -p tcp -e 1040 -c 2 -a 0 -i 15 -k AGT
+ -t 1.145769328 -s 0 -d -1 -p tcp -e 1040 -c 2 -a 0 -i 16 -k AGT 
- -t 1.145769328 -s 0 -d -1 -p tcp -e 1040 -c 2 -a 0 -i 16 -k AGT
h -t 1.145769328 -s 0 -d -1 -p tcp -e 1040 -c 2 -a 0 -i 16 -k AGT
+ -t 1.145769328 -s 0 -d 1 -p tcp -e 1040 -c 2 -a 0 -i 15 -k RTR 
- -t 1.145769328 -s 0 -d 1 -p tcp -e 1040 -c 2 -a 0 -i 15 -k RTR
h -t 1.145769328 -s 0 -d 1 -p tcp -e 1040 -c 2 -a 0 -i 15 -k RTR
+ -t 1.145769328 -s 0 -d 1 -p tcp -e 1040 -c 2 -a 0 -i 16 -k RTR 
- -t 1.145769328 -s 0 -d 1 -p tcp -e 1040 -c 2 -a 0 -i 16 -k RTR
h -t 1.145769328 -s 0 -d 1 -p tcp -e 1040 -c 2 -a 0 -i 16 -k RTR
r -t 1.147714661 -s 0 -d 0 -p ack -e 40 -c 2 -a 0 -i 14 -k AGT
+ -t 1.147714661 -s 0 -d -1 -p tcp -e 1040 -c 2 -a 0 -i 17 -k AGT 
- -t 1.147714661 -s 0 -d -1 -p tcp -e 1040 -c 2 -a 0 -i 17 -k AGT
h -t 1.147714661 -s 0 -d -1 -p tcp -e 1040 -c 2 -a 0 -i 17 -k AGT
+ -t 1.147714661 -s 0 -d -1 -p tcp -e 1040 -c 2 -a 0 -i 18 -k AGT 
- -t 1.147714661 -s 0 -d -1 -p tcp -e 1040 -c 2 -a 0 -i 18 -k AGT
h -t 1.147714661 -s 0 -d -1 -p tcp -e 1040 -c 2 -a 0 -i 18 -k AGT
+ -t 1.147714661 -s 0 -d 1 -p tcp -e 1040 -c 2 -a 0 -i 17 -k RTR 
- -t 1.147714661 -s 0 -d 1 -p tcp -e 1040 -c 2 -a 0 -i 17 -k RTR
h -t 1.147714661 -s 0 -d 1 -p tcp -e 1040 -c 2 -a 0 -i 17 -k RTR
+ -t 1.147714661 -s 0 -d 1 -p tcp -e 1040 -c 2 -a 0 -i 18 -k RTR 
- -t 1.147714661 -s 0 -d 1 -p tcp -e 1040 -c 2 -a 0 -i 18 -k RTR
h -t 1.147714661 -s 0 -d 1 -p tcp -e 1040 -c 2 -a 0 -i 18 -k RTR
+ -t 1.157639661 -s 1 -d 9 -p tcp -e 1040 -c 2 -a 0 -i 9 -k RTR 
- -t 1.157639661 -s 1 -d 9 -p tcp -e 1040 -c 2 -a 0 -i 9 -k RTR
h -t 1.157639661 -s 1 -d 9 -p tcp -e 1040 -c 2 -a 0 -i 9 -k RTR
+ -t 1.167564994 -s 1 -d 9 -p tcp -e 1040 -c 2 -a 0 -i 11 -k RTR 
- -t 1.167564994 -s 1 -d 9 -p tcp -e 1040 -c 2 -a 0 -i 11 -k RTR
h -t 1.167564994 -s 1 -d 9 -p tcp -e 1040 -c 2 -a 0 -i 11 -k RTR
r -t 1.177411230 -s 9 -d 9 -p tcp -e 1040 -c 2 -a 0 -i 9 -k AGT
+ -t 1.177411230 -s 9 -d -1 -p ack -e 40 -c 2 -a 0 -i 19 -k AGT 
- -t 1.177411230 -s 9 -d -1 -p ack -e 40 -c 2 -a 0 -i 19 -k AGT
h -t 1.177411230 -s 9 -d -1 -p ack -e 40 -c 2 -a 0 -i 19 -k AGT
+ -t 1.177411230 -s 9 -d 1 -p ack -e 40 -c 2 -a 0 -i 19 -k RTR 
- -t 1.177411230 -s 9 -d 1 -p ack -e 40 -c 2 -a 0 -i 19 -k RTR
h -t 1.177411230 -s 9 -d 1 -p ack -e 40 -c 2 -a 0 -i 19 -k RTR
r -t 1.187498212 -s 9 -d 9 -p tcp -e 1040 -c 2 -a 0 -i 11 -k AGT
+ -t 1.187498212 -s 9 -d -1 -p ack -e 40 -c 2 -a 0 -i 20 -k AGT 
- -t 1.187498212 -s 9 -d -1 -p ack -e 40 -c 2 -a 0 -i 20 -k AGT
h -t 1.187498212 -s 9 -d -1 -p ack -e 40 -c 2 -a 0 -i 20 -k AGT
+ -t 1.187498212 -s 9 -d 1 -p ack -e 40 -c 2 -a 0 -i 20 -k RTR 
- -t 1.187498212 -s 9 -d 1 -p ack -e 40 -c 2 -a 0 -i 20 -k RTR
h -t 1.187498212 -s 9 -d 1 -p ack -e 40 -c 2 -a 0 -i 20 -k RTR
+ -t 1.189344448 -s 1 -d 0 -p ack -e 40 -c 2 -a 0 -i 19 -k RTR 
- -t 1.189344448 -s 1 -d 0 -p ack -e 40 -c 2 -a 0 -i 19 -k RTR
h -t 1.189344448 -s 1 -d 0 -p ack -e 40 -c 2 -a 0 -i 19 -k RTR
+ -t 1.191231429 -s 1 -d 0 -p ack -e 40 -c 2 -a 0 -i 20 -k RTR 
- -t 1.191231429 -s 1 -d 0 -p ack -e 40 -c 2 -a 0 -i 20 -k RTR
h -t 1.191231429 -s 1 -d 0 -p ack -e 40 -c 2 -a 0 -i 20 -k RTR
+ -t 1.201186627 -s 1 -d 9 -p tcp -e 1040 -c 2 -a 0 -i 12 -k RTR 
- -t 1.201186627 -s 1 -d 9 -p tcp -e 1040 -c 2 -a 0 -i 12 -k RTR
h -t 1.201186627 -s 1 -d 9 -p tcp -e 1040 -c 2 -a 0 -i 12 -k RTR
r -t 1.203031627 -s 0 -d 0 -p ack -e 40 -c 2 -a 0 -i 19 -k AGT
+ -t 1.203031627 -s 0 -d -1 -p tcp -e 1040 -c 2 -a 0 -i 21 -k AGT 
- -t 1.203031627 -s 0 -d -1 -p tcp -e 1040 -c 2 -a 0 -i 21 -k AGT
h -t 1.203031627 -s 0 -d -1 -p tcp -e 1040 -c 2 -a 0 -i 21 -k AGT
+ -t 1.203031627 -s 0 -d -1 -p tcp -e 1040 -c 2 -a 0 -i 22 -k AGT 
- -t 1.203031627 -s 0 -d -1 -p tcp -e 1040 -c 2 -a 0 -i 22 -k AGT
h -t 1.203031627 -s 0 -d -1 -p tcp -e 1040 -c 2 -a 0 -i 22 -k AGT
+ -t 1.203031627 -s 0 -d 1 -p tcp -e 1040 -c 2 -a 0 -i 21 -k RTR 
- -t 1.203031627 -s 0 -d 1 -p tcp -e 1040 -c 2 -a 0 -i 21 -k RTR
h -t 1.203031627 -s 0 -d 1 -p tcp -e 1040 -c 2 -a 0 -i 21 -k RTR
+ -t 1.203031627 -s 0 -d 1 -p tcp -e 1040 -c 2 -a 0 -i 22 -k RTR 
- -t 1.203031627 -s 0 -d 1 -p tcp -e 1040 -c 2 -a 0 -i 22 -k RTR
h -t 1.203031627 -s 0 -d 1 -p tcp -e 1040 -c 2 -a 0 -i 22 -k RTR
r -t 1.204976960 -s 0 -d 0 -p ack -e 40 -c 2 -a 0 -i 20 -k AGT
+ -t 1.204976960 -s 0 -d -1 -p tcp -e 1040 -c 2 -a 0 -i 23 -k AGT 
- -t 1.204976960 -s 0 -d -1 -p tcp -e 1040 -c 2 -a 0 -i 23 -k AGT
h -t 1.204976960 -s 0 -d -1 -p tcp -e 1040 -c 2 -a 0 -i 23 -k AGT
+ -t 1.204976960 -s 0 -d -1 -p tcp -e 1040 -c 2 -a 0 -i 24 -k AGT 
- -t 1.204976960 -s 0 -d -1 -p tcp -e 1040 -c 2 -a 0 -i 24 -k AGT
h -t 1.204976960 -s 0 -d -1 -p tcp -e 1040 -c 2 -a 0 -i 24 -k AGT
+ -t 1.204976960 -s 0 -d 1 -p tcp -e 1040 -c 2 -a 0 -i 23 -k RTR 
- -t 1.204976960 -s 0 -d 1 -p tcp -e 1040 -c 2 -a 0 -i 23 -k RTR
h -t 1.204976960 -s 0 -d 1 -p tcp -e 1040 -c 2 -a 0 -i 23 -k RTR
+ -t 1.204976960 -s 0 -d 1 -p tcp -e 1040 -c 2 -a 0 -i 24 -k RTR 
- -t 1.204976960 -s 0 -d 1 -p tcp -e 1040 -c 2 -a 0 -i 24 -k RTR
h -t 1.204976960 -s 0 -d 1 -p tcp -e 1040 -c 2 -a 0 -i 24 -k RTR
r -t 1.214863529 -s 9 -d 9 -p tcp -e 1040 -c 2 -a 0 -i 12 -k AGT
+ -t 1.214863529 -s 9 -d -1 -p ack -e 40 -c 2 -a 0 -i 25 -k AGT 
- -t 1.214863529 -s 9 -d -1 -p ack -e 40 -c 2 -a 0 -i 25 -k AGT
h -t 1.214863529 -s 9 -d -1 -p ack -e 40 -c 2 -a 0 -i 25 -k AGT
+ -t 1.214863529 -s 9 -d 1 -p ack -e 40 -c 2 -a 0 -i 25 -k RTR 
- -t 1.214863529 -s 9 -d 1 -p ack -e 40 -c 2 -a 0 -i 25 -k RTR
h -t 1.214863529 -s 9 -d 1 -p ack -e 40 -c 2 -a 0 -i 25 -k RTR
+ -t 1.216909765 -s 1 -d 0 -p ack -e 40 -c 2 -a 0 -i 25 -k RTR 
- -t 1.216909765 -s 1 -d 0 -p ack -e 40 -c 2 -a 0 -i 25 -k RTR
h -t 1.216909765 -s 1 -d 0 -p ack -e 40 -c 2 -a 0 -i 25 -k RTR
r -t 1.219114765 -s 0 -d 0 -p ack -e 40 -c 2 -a 0 -i 25 -k AGT
+ -t 1.219114765 -s 0 -d -1 -p tcp -e 1040 -c 2 -a 0 -i 26 -k AGT 
- -t 1.219114765 -s 0 -d -1 -p tcp -e 1040 -c 2 -a 0 -i 26 -k AGT
h -t 1.219114765 -s 0 -d -1 -p tcp -e 1040 -c 2 -a 0 -i 26 -k AGT
+ -t 1.219114765 -s 0 -d -1 -p tcp -e 1040 -c 2 -a 0 -i 27 -k AGT 
- -t 1.219114765 -s 0 -d -1 -p tcp -e 1040 -c 2 -a 0 -i 27 -k AGT
h -t 1.219114765 -s 0 -d -1 -p tcp -e 1040 -c 2 -a 0 -i 27 -k AGT
+ -t 1.219114765 -s 0 -d 1 -p tcp -e 1040 -c 2 -a 0 -i 26 -k RTR 
- -t 1.219114765 -s 0 -d 1 -p tcp -e 1040 -c 2 -a 0 -i 26 -k RTR
h -t 1.219114765 -s 0 -d 1 -p tcp -e 1040 -c 2 -a 0 -i 26 -k RTR
+ -t 1.219114765 -s 0 -d 1 -p tcp -e 1040 -c 2 -a 0 -i 27 -k RTR 
- -t 1.219114765 -s 0 -d 1 -p tcp -e 1040 -c 2 -a 0 -i 27 -k RTR
h -t 1.219114765 -s 0 -d 1 -p tcp -e 1040 -c 2 -a 0 -i 27 -k RTR
+ -t 1.229039765 -s 1 -d 9 -p tcp -e 1040 -c 2 -a 0 -i 15 -k RTR 
- -t 1.229039765 -s 1 -d 9 -p tcp -e 1040 -c 2 -a 0 -i 15 -k RTR
h -t 1.229039765 -s 1 -d 9 -p tcp -e 1040 -c 2 -a 0 -i 15 -k RTR
+ -t 1.239305099 -s 1 -d 9 -p tcp -e 1040 -c 2 -a 0 -i 16 -k RTR 
- -t 1.239305099 -s 1 -d 9 -p tcp -e 1040 -c 2 -a 0 -i 16 -k RTR
h -t 1.239305099 -s 1 -d 9 -p tcp -e 1040 -c 2 -a 0 -i 16 -k RTR
r -t 1.249211335 -s 9 -d 9 -p tcp -e 1040 -c 2 -a 0 -i 15 -k AGT
+ -t 1.249211335 -s 9 -d -1 -p ack -e 40 -c 2 -a 0 -i 28 -k AGT 
- -t 1.249211335 -s 9 -d -1 -p ack -e 40 -c 2 -a 0 -i 28 -k AGT
h -t 1.249211335 -s 9 -d -1 -p ack -e 40 -c 2 -a 0 -i 28 -k AGT
+ -t 1.249211335 -s 9 -d 1 -p ack -e 40 -c 2 -a 0 -i 28 -k RTR 
- -t 1.249211335 -s 9 -d 1 -p ack -e 40 -c 2 -a 0 -i 28 -k RTR
h -t 1.249211335 -s 9 -d 1 -p ack -e 40 -c 2 -a 0 -i 28 -k RTR
r -t 1.260424316 -s 9 -d 9 -p tcp -e 1040 -c 2 -a 0 -i 16 -k AGT
+ -t 1.260424316 -s 9 -d -1 -p ack -e 40 -c 2 -a 0 -i 29 -k AGT 
- -t 1.260424316 -s 9 -d -1 -p ack -e 40 -c 2 -a 0 -i 29 -k AGT
h -t 1.260424316 -s 9 -d -1 -p ack -e 40 -c 2 -a 0 -i 29 -k AGT
+ -t 1.260424316 -s 9 -d 1 -p ack -e 40 -c 2 -a 0 -i 29 -k RTR 
- -t 1.260424316 -s 9 -d 1 -p ack -e 40 -c 2 -a 0 -i 29 -k RTR
h -t 1.260424316 -s 9 -d 1 -p ack -e 40 -c 2 -a 0 -i 29 -k RTR
+ -t 1.262630552 -s 1 -d 0 -p ack -e 40 -c 2 -a 0 -i 28 -k RTR 
- -t 1.262630552 -s 1 -d 0 -p ack -e 40 -c 2 -a 0 -i 28 -k RTR
h -t 1.262630552 -s 1 -d 0 -p ack -e 40 -c 2 -a 0 -i 28 -k RTR
+ -t 1.264677534 -s 1 -d 0 -p ack -e 40 -c 2 -a 0 -i 29 -k RTR 
- -t 1.264677534 -s 1 -d 0 -p ack -e 40 -c 2 -a 0 -i 29 -k RTR
h -t 1.264677534 -s 1 -d 0 -p ack -e 40 -c 2 -a 0 -i 29 -k RTR
+ -t 1.274572731 -s 1 -d 9 -p tcp -e 1040 -c 2 -a 0 -i 17 -k RTR 
- -t 1.274572731 -s 1 -d 9 -p tcp -e 1040 -c 2 -a 0 -i 17 -k RTR
h -t 1.274572731 -s 1 -d 9 -p tcp -e 1040 -c 2 -a 0 -i 17 -k RTR
+ -t 1.284558065 -s 1 -d 9 -p tcp -e 1040 -c 2 -a 0 -i 18 -k RTR 
- -t 1.284558065 -s 1 -d 9 -p tcp -e 1040 -c 2 -a 0 -i 18 -k RTR
h -t 1.284558065 -s 1 -d 9 -p tcp -e 1040 -c 2 -a 0 -i 18 -k RTR
r -t 1.286523065 -s 0 -d 0 -p ack -e 40 -c 2 -a 0 -i 28 -k AGT
+ -t 1.286523065 -s 0 -d -1 -p tcp -e 1040 -c 2 -a 0 -i 30 -k AGT 
- -t 1.286523065 -s 0 -d -1 -p tcp -e 1040 -c 2 -a 0 -i 30 -k AGT
h -t 1.286523065 -s 0 -d -1 -p tcp -e 1040 -c 2 -a 0 -i 30 -k AGT
+ -t 1.286523065 -s 0 -d -1 -p tcp -e 1040 -c 2 -a 0 -i 31 -k AGT 
- -t 1.286523065 -s 0 -d -1 -p tcp -e 1040 -c 2 -a 0 -i 31 -k AGT
h -t 1.286523065 -s 0 -d -1 -p tcp -e 1040 -c 2 -a 0 -i 31 -k AGT
+ -t 1.286523065 -s 0 -d 1 -p tcp -e 1040 -c 2 -a 0 -i 30 -k RTR 
- -t 1.286523065 -s 0 -d 1 -p tcp -e 1040 -c 2 -a 0 -i 30 -k RTR
h -t 1.286523065 -s 0 -d 1 -p tcp -e 1040 -c 2 -a 0 -i 30 -k RTR
+ -t 1.286523065 -s 0 -d 1 -p tcp -e 1040 -c 2 -a 0 -i 31 -k RTR 
- -t 1.286523065 -s 0 -d 1 -p tcp -e 1040 -c 2 -a 0 -i 31 -k RTR
h -t 1.286523065 -s 0 -d 1 -p tcp -e 1040 -c 2 -a 0 -i 31 -k RTR
+ -t 1.296668065 -s 1 -d 9 -p tcp -e 1040 -c 2 -a 0 -i 21 -k RTR 
- -t 1.296668065 -s 1 -d 9 -p tcp -e 1040 -c 2 -a 0 -i 21 -k RTR
h -t 1.296668065 -s 1 -d 9 -p tcp -e 1040 -c 2 -a 0 -i 21 -k RTR
r -t 1.298593065 -s 0 -d 0 -p ack -e 40 -c 2 -a 0 -i 29 -k AGT
+ -t 1.298593065 -s 0 -d -1 -p tcp -e 1040 -c 2 -a 0 -i 32 -k AGT 
- -t 1.298593065 -s 0 -d -1 -p tcp -e 1040 -c 2 -a 0 -i 32 -k AGT
h -t 1.298593065 -s 0 -d -1 -p tcp -e 1040 -c 2 -a 0 -i 32 -k AGT
+ -t 1.298593065 -s 0 -d -1 -p tcp -e 1040 -c 2 -a 0 -i 33 -k AGT 
- -t 1.298593065 -s 0 -d -1 -p tcp -e 1040 -c 2 -a 0 -i 33 -k AGT
h -t 1.298593065 -s 0 -d -1 -p tcp -e 1040 -c 2 -a 0 -i 33 -k AGT
+ -t 1.298593065 -s 0 -d 1 -p tcp -e 1040 -c 2 -a 0 -i 32 -k RTR 
- -t 1.298593065 -s 0 -d 1 -p tcp -e 1040 -c 2 -a 0 -i 32 -k RTR
h -t 1.298593065 -s 0 -d 1 -p tcp -e 1040 -c 2 -a 0 -i 32 -k RTR
+ -t 1.298593065 -s 0 -d 1 -p tcp -e 1040 -c 2 -a 0 -i 33 -k RTR 
- -t 1.298593065 -s 0 -d 1 -p tcp -e 1040 -c 2 -a 0 -i 33 -k RTR
h -t 1.298593065 -s 0 -d 1 -p tcp -e 1040 -c 2 -a 0 -i 33 -k RTR
+ -t 1.308458065 -s 1 -d 9 -p tcp -e 1040 -c 2 -a 0 -i 22 -k RTR 
- -t 1.308458065 -s 1 -d 9 -p tcp -e 1040 -c 2 -a 0 -i 22 -k RTR
h -t 1.308458065 -s 1 -d 9 -p tcp -e 1040 -c 2 -a 0 -i 22 -k RTR
r -t 1.318424301 -s 9 -d 9 -p tcp -e 1040 -c 2 -a 0 -i 17 -k AGT
+ -t 1.318424301 -s 9 -d -1 -p ack -e 40 -c 2 -a 0 -i 34 -k AGT 
- -t 1.318424301 -s 9 -d -1 -p ack -e 40 -c 2 -a 0 -i 34 -k AGT
h -t 1.318424301 -s 9 -d -1 -p ack -e 40 -c 2 -a 0 -i 34 -k AGT
+ -t 1.318424301 -s 9 -d 1 -p ack -e 40 -c 2 -a 0 -i 34 -k RTR 
- -t 1.318424301 -s 9 -d 1 -p ack -e 40 -c 2 -a 0 -i 34 -k RTR
h -t 1.318424301 -s 9 -d 1 -p ack -e 40 -c 2 -a 0 -i 34 -k RTR
+ -t 1.320250537 -s 1 -d 0 -p ack -e 40 -c 2 -a 0 -i 34 -k RTR 
- -t 1.320250537 -s 1 -d 0 -p ack -e 40 -c 2 -a 0 -i 34 -k RTR
h -t 1.320250537 -s 1 -d 0 -p ack -e 40 -c 2 -a 0 -i 34 -k RTR
r -t 1.330216773 -s 9 -d 9 -p tcp -e 1040 -c 2 -a 0 -i 18 -k AGT
+ -t 1.330216773 -s 9 -d -1 -p ack -e 40 -c 2 -a 0 -i 35 -k AGT 
- -t 1.330216773 -s 9 -d -1 -p ack -e 40 -c 2 -a 0 -i 35 -k AGT
h -t 1.330216773 -s 9 -d -1 -p ack -e 40 -c 2 -a 0 -i 35 -k AGT
+ -t 1.330216773 -s 9 -d 1 -p ack -e 40 -c 2 -a 0 -i 35 -k RTR 
- -t 1.330216773 -s 9 -d 1 -p ack -e 40 -c 2 -a 0 -i 35 -k RTR
h -t 1.330216773 -s 9 -d 1 -p ack -e 40 -c 2 -a 0 -i 35 -k RTR
+ -t 1.332283009 -s 1 -d 0 -p ack -e 40 -c 2 -a 0 -i 35 -k RTR 
- -t 1.332283009 -s 1 -d 0 -p ack -e 40 -c 2 -a 0 -i 35 -k RTR
h -t 1.332283009 -s 1 -d 0 -p ack -e 40 -c 2 -a 0 -i 35 -k RTR
+ -t 1.342178206 -s 1 -d 9 -p tcp -e 1040 -c 2 -a 0 -i 23 -k RTR 
- -t 1.342178206 -s 1 -d 9 -p tcp -e 1040 -c 2 -a 0 -i 23 -k RTR
h -t 1.342178206 -s 1 -d 9 -p tcp -e 1040 -c 2 -a 0 -i 23 -k RTR
r -t 1.352044442 -s 9 -d 9 -p tcp -e 1040 -c 2 -a 0 -i 21 -k AGT
+ -t 1.352044442 -s 9 -d -1 -p ack -e 40 -c 2 -a 0 -i 36 -k AGT 
- -t 1.352044442 -s 9 -d -1 -p ack -e 40 -c 2 -a 0 -i 36 -k AGT
h -t 1.352044442 -s 9 -d -1 -p ack -e 40 -c 2 -a 0 -i 36 -k AGT
+ -t 1.352044442 -s 9 -d 1 -p ack -e 40 -c 2 -a 0 -i 36 -k RTR 
- -t 1.352044442 -s 9 -d 1 -p ack -e 40 -c 2 -a 0 -i 36 -k RTR
h -t 1.352044442 -s 9 -d 1 -p ack -e 40 -c 2 -a 0 -i 36 -k RTR
r -t 1.362191424 -s 9 -d 9 -p tcp -e 1040 -c 2 -a 0 -i 22 -k AGT
+ -t 1.362191424 -s 9 -d -1 -p ack -e 40 -c 2 -a 0 -i 37 -k AGT 
- -t 1.362191424 -s 9 -d -1 -p ack -e 40 -c 2 -a 0 -i 37 -k AGT
h -t 1.362191424 -s 9 -d -1 -p ack -e 40 -c 2 -a 0 -i 37 -k AGT
+ -t 1.362191424 -s 9 -d 1 -p ack -e 40 -c 2 -a 0 -i 37 -k RTR 
- -t 1.362191424 -s 9 -d 1 -p ack -e 40 -c 2 -a 0 -i 37 -k RTR
h -t 1.362191424 -s 9 -d 1 -p ack -e 40 -c 2 -a 0 -i 37 -k RTR
+ -t 1.364057660 -s 1 -d 0 -p ack -e 40 -c 2 -a 0 -i 36 -k RTR 
- -t 1.364057660 -s 1 -d 0 -p ack -e 40 -c 2 -a 0 -i 36 -k RTR
h -t 1.364057660 -s 1 -d 0 -p ack -e 40 -c 2 -a 0 -i 36 -k RTR
+ -t 1.365904641 -s 1 -d 0 -p ack -e 40 -c 2 -a 0 -i 37 -k RTR 
- -t 1.365904641 -s 1 -d 0 -p ack -e 40 -c 2 -a 0 -i 37 -k RTR
h -t 1.365904641 -s 1 -d 0 -p ack -e 40 -c 2 -a 0 -i 37 -k RTR
r -t 1.367849641 -s 0 -d 0 -p ack -e 40 -c 2 -a 0 -i 34 -k AGT
+ -t 1.367849641 -s 0 -d -1 -p tcp -e 1040 -c 2 -a 0 -i 38 -k AGT 
- -t 1.367849641 -s 0 -d -1 -p tcp -e 1040 -c 2 -a 0 -i 38 -k AGT
h -t 1.367849641 -s 0 -d -1 -p tcp -e 1040 -c 2 -a 0 -i 38 -k AGT
+ -t 1.367849641 -s 0 -d -1 -p tcp -e 1040 -c 2 -a 0 -i 39 -k AGT 