n -t * -s 0  -x 100 -y 100 -Z 0 -z 30  -v circle -c black
n -t * -s 1  -x 100 -y 200 -Z 0 -z 30  -v circle -c black
n -t * -s 2  -x 100 -y 300 -Z 0 -z 30  -v circle -c black
n -t * -s 3  -x 100 -y 400 -Z 0 -z 30  -v circle -c black
n -t * -s 4  -x 200 -y 100 -Z 0 -z 30  -v circle -c black
n -t * -s 5  -x 200 -y 200 -Z 0 -z 30  -v circle -c black
n -t * -s 6  -x 200 -y 300 -Z 0 -z 30  -v circle -c black
n -t * -s 7  -x 200 -y 400 -Z 0 -z 30  -v circle -c black
n -t * -s 8  -x 300 -y 200 -Z 0 -z 30  -v circle -c black
n -t * -s 9  -x 300 -y 300 -Z 0 -z 30  -v circle -c black
V -t * -v 1.0a5 -a 0
W -t * -x 500 -y 500
A -t * -n 1 -p 0 -o 0x7fffffff -c 30 -a 1
A -t * -h 1 -m 1073741823 -s 0
+ -t 1.000000000 -s 0 -d -1 -p tcp -e 40 -c 2 -a 0 -i 0 -k AGT 
- -t 1.000000000 -s 0 -d -1 -p tcp -e 40 -c 2 -a 0 -i 0 -k AGT
h -t 1.000000000 -s 0 -d -1 -p tcp -e 40 -c 2 -a 0 -i 0 -k AGT
+ -t 1.003752324 -s 0 -d -1 -p DSR -e 32 -c 2 -a 0 -i 1 -k RTR 
- -t 1.003752324 -s 0 -d -1 -p DSR -e 32 -c 2 -a 0 -i 1 -k RTR
h -t 1.003752324 -s 0 -d -1 -p DSR -e 32 -c 2 -a 0 -i 1 -k RTR
+ -t 1.058219887 -s 0 -d -1 -p DSR -e 32 -c 2 -a 0 -i 3 -k RTR 
- -t 1.058219887 -s 0 -d -1 -p DSR -e 32 -c 2 -a 0 -i 3 -k RTR
h -t 1.058219887 -s 0 -d -1 -p DSR -e 32 -c 2 -a 0 -i 3 -k RTR
+ -t 1.062870588 -s 2 -d -1 -p DSR -e 48 -c 2 -a 0 -i 3 -k RTR 
- -t 1.062870588 -s 2 -d -1 -p DSR -e 48 -c 2 -a 0 -i 3 -k RTR
h -t 1.062870588 -s 2 -d -1 -p DSR -e 48 -c 2 -a 0 -i 3 -k RTR
+ -t 1.064690243 -s 6 -d -1 -p DSR -e 48 -c 2 -a 0 -i 3 -k RTR 
- -t 1.064690243 -s 6 -d -1 -p DSR -e 48 -c 2 -a 0 -i 3 -k RTR
h -t 1.064690243 -s 6 -d -1 -p DSR -e 48 -c 2 -a 0 -i 3 -k RTR
+ -t 1.066125962 -s 9 -d 6 -p DSR -e 52 -c 2 -a 0 -i 5 -k RTR 
- -t 1.066125962 -s 9 -d 6 -p DSR -e 52 -c 2 -a 0 -i 5 -k RTR
h -t 1.066125962 -s 9 -d 6 -p DSR -e 52 -c 2 -a 0 -i 5 -k RTR
+ -t 1.066984700 -s 3 -d -1 -p DSR -e 68 -c 2 -a 0 -i 3 -k RTR 
- -t 1.066984700 -s 3 -d -1 -p DSR -e 68 -c 2 -a 0 -i 3 -k RTR
h -t 1.066984700 -s 3 -d -1 -p DSR -e 68 -c 2 -a 0 -i 3 -k RTR
+ -t 1.067267487 -s 8 -d -1 -p DSR -e 48 -c 2 -a 0 -i 3 -k RTR 
- -t 1.067267487 -s 8 -d -1 -p DSR -e 48 -c 2 -a 0 -i 3 -k RTR
h -t 1.067267487 -s 8 -d -1 -p DSR -e 48 -c 2 -a 0 -i 3 -k RTR
+ -t 1.067706183 -s 7 -d -1 -p DSR -e 68 -c 2 -a 0 -i 3 -k RTR 
- -t 1.067706183 -s 7 -d -1 -p DSR -e 68 -c 2 -a 0 -i 3 -k RTR
h -t 1.067706183 -s 7 -d -1 -p DSR -e 68 -c 2 -a 0 -i 3 -k RTR
+ -t 1.068186827 -s 1 -d -1 -p DSR -e 48 -c 2 -a 0 -i 3 -k RTR 
- -t 1.068186827 -s 1 -d -1 -p DSR -e 48 -c 2 -a 0 -i 3 -k RTR
h -t 1.068186827 -s 1 -d -1 -p DSR -e 48 -c 2 -a 0 -i 3 -k RTR
+ -t 1.068607846 -s 5 -d -1 -p DSR -e 48 -c 2 -a 0 -i 3 -k RTR 
- -t 1.068607846 -s 5 -d -1 -p DSR -e 48 -c 2 -a 0 -i 3 -k RTR
h -t 1.068607846 -s 5 -d -1 -p DSR -e 48 -c 2 -a 0 -i 3 -k RTR
+ -t 1.068736396 -s 4 -d -1 -p DSR -e 48 -c 2 -a 0 -i 3 -k RTR 
- -t 1.068736396 -s 4 -d -1 -p DSR -e 48 -c 2 -a 0 -i 3 -k RTR
h -t 1.068736396 -s 4 -d -1 -p DSR -e 48 -c 2 -a 0 -i 3 -k RTR
+ -t 1.068762142 -s 9 -d 2 -p DSR -e 52 -c 2 -a 0 -i 4 -k RTR 
- -t 1.068762142 -s 9 -d 2 -p DSR -e 52 -c 2 -a 0 -i 4 -k RTR
h -t 1.068762142 -s 9 -d 2 -p DSR -e 52 -c 2 -a 0 -i 4 -k RTR
+ -t 1.071678030 -s 9 -d 3 -p DSR -e 60 -c 2 -a 0 -i 6 -k RTR 
- -t 1.071678030 -s 9 -d 3 -p DSR -e 60 -c 2 -a 0 -i 6 -k RTR
h -t 1.071678030 -s 9 -d 3 -p DSR -e 60 -c 2 -a 0 -i 6 -k RTR
+ -t 1.074273195 -s 9 -d 8 -p DSR -e 52 -c 2 -a 0 -i 9 -k RTR 
- -t 1.074273195 -s 9 -d 8 -p DSR -e 52 -c 2 -a 0 -i 9 -k RTR
h -t 1.074273195 -s 9 -d 8 -p DSR -e 52 -c 2 -a 0 -i 9 -k RTR
+ -t 1.076226951 -s 9 -d 5 -p DSR -e 52 -c 2 -a 0 -i 8 -k RTR 
- -t 1.076226951 -s 9 -d 5 -p DSR -e 52 -c 2 -a 0 -i 8 -k RTR
h -t 1.076226951 -s 9 -d 5 -p DSR -e 52 -c 2 -a 0 -i 8 -k RTR
+ -t 1.077335310 -s 9 -d 7 -p DSR -e 60 -c 2 -a 0 -i 7 -k RTR 
- -t 1.077335310 -s 9 -d 7 -p DSR -e 60 -c 2 -a 0 -i 7 -k RTR
h -t 1.077335310 -s 9 -d 7 -p DSR -e 60 -c 2 -a 0 -i 7 -k RTR
+ -t 1.079386453 -s 6 -d 0 -p DSR -e 52 -c 2 -a 0 -i 5 -k RTR 
- -t 1.079386453 -s 6 -d 0 -p DSR -e 52 -c 2 -a 0 -i 5 -k RTR
h -t 1.079386453 -s 6 -d 0 -p DSR -e 52 -c 2 -a 0 -i 5 -k RTR
+ -t 1.081728786 -s 2 -d 0 -p DSR -e 52 -c 2 -a 0 -i 4 -k RTR 
- -t 1.081728786 -s 2 -d 0 -p DSR -e 52 -c 2 -a 0 -i 4 -k RTR
h -t 1.081728786 -s 2 -d 0 -p DSR -e 52 -c 2 -a 0 -i 4 -k RTR
+ -t 1.086345337 -s 0 -d 6 -p tcp -e 80 -c 2 -a 0 -i 0 -k RTR 
- -t 1.086345337 -s 0 -d 6 -p tcp -e 80 -c 2 -a 0 -i 0 -k RTR
h -t 1.086345337 -s 0 -d 6 -p tcp -e 80 -c 2 -a 0 -i 0 -k RTR
+ -t 1.097775852 -s 6 -d 9 -p tcp -e 80 -c 2 -a 0 -i 0 -k RTR 
- -t 1.097775852 -s 6 -d 9 -p tcp -e 80 -c 2 -a 0 -i 0 -k RTR
h -t 1.097775852 -s 6 -d 9 -p tcp -e 80 -c 2 -a 0 -i 0 -k RTR
+ -t 1.099832286 -s 3 -d 2 -p DSR -e 60 -c 2 -a 0 -i 6 -k RTR 
- -t 1.099832286 -s 3 -d 2 -p DSR -e 60 -c 2 -a 0 -i 6 -k RTR
h -t 1.099832286 -s 3 -d 2 -p DSR -e 60 -c 2 -a 0 -i 6 -k RTR
+ -t 1.101957286 -s 2 -d 0 -p DSR -e 60 -c 2 -a 0 -i 6 -k RTR 
- -t 1.101957286 -s 2 -d 0 -p DSR -e 60 -c 2 -a 0 -i 6 -k RTR
h -t 1.101957286 -s 2 -d 0 -p DSR -e 60 -c 2 -a 0 -i 6 -k RTR
d -t 1.101957286 -s 2 -d 0 -p DSR -e 52 -c 2 -a 0 -i 4 -k IFQ
+ -t 1.104063367 -s 7 -d 2 -p DSR -e 60 -c 2 -a 0 -i 7 -k RTR 
- -t 1.104063367 -s 7 -d 2 -p DSR -e 60 -c 2 -a 0 -i 7 -k RTR
h -t 1.104063367 -s 7 -d 2 -p DSR -e 60 -c 2 -a 0 -i 7 -k RTR
r -t 1.106488700 -s 9 -d 9 -p tcp -e 40 -c 2 -a 0 -i 0 -k AGT
+ -t 1.106488700 -s 9 -d -1 -p ack -e 40 -c 2 -a 0 -i 10 -k AGT 
- -t 1.106488700 -s 9 -d -1 -p ack -e 40 -c 2 -a 0 -i 10 -k AGT
h -t 1.106488700 -s 9 -d -1 -p ack -e 40 -c 2 -a 0 -i 10 -k AGT
+ -t 1.106488700 -s 9 -d 2 -p ack -e 80 -c 2 -a 0 -i 10 -k RTR 
- -t 1.106488700 -s 9 -d 2 -p ack -e 80 -c 2 -a 0 -i 10 -k RTR
h -t 1.106488700 -s 9 -d 2 -p ack -e 80 -c 2 -a 0 -i 10 -k RTR
+ -t 1.109313252 -s 2 -d 0 -p DSR -e 60 -c 2 -a 0 -i 7 -k RTR 
- -t 1.109313252 -s 2 -d 0 -p DSR -e 60 -c 2 -a 0 -i 7 -k RTR
h -t 1.109313252 -s 2 -d 0 -p DSR -e 60 -c 2 -a 0 -i 7 -k RTR
d -t 1.109313252 -s 2 -d 0 -p DSR -e 60 -c 2 -a 0 -i 6 -k IFQ
+ -t 1.117119466 -s 2 -d 0 -p ack -e 80 -c 2 -a 0 -i 10 -k RTR 
- -t 1.117119466 -s 2 -d 0 -p ack -e 80 -c 2 -a 0 -i 10 -k RTR
h -t 1.117119466 -s 2 -d 0 -p ack -e 80 -c 2 -a 0 -i 10 -k RTR
+ -t 1.119081547 -s 5 -d 0 -p DSR -e 52 -c 2 -a 0 -i 8 -k RTR 
- -t 1.119081547 -s 5 -d 0 -p DSR -e 52 -c 2 -a 0 -i 8 -k RTR
h -t 1.119081547 -s 5 -d 0 -p DSR -e 52 -c 2 -a 0 -i 8 -k RTR
r -t 1.126822294 -s 0 -d 0 -p ack -e 40 -c 2 -a 0 -i 10 -k AGT
+ -t 1.126822294 -s 0 -d -1 -p tcp -e 1040 -c 2 -a 0 -i 11 -k AGT 
- -t 1.126822294 -s 0 -d -1 -p tcp -e 1040 -c 2 -a 0 -i 11 -k AGT
h -t 1.126822294 -s 0 -d -1 -p tcp -e 1040 -c 2 -a 0 -i 11 -k AGT
+ -t 1.126822294 -s 0 -d -1 -p tcp -e 1040 -c 2 -a 0 -i 12 -k AGT 
- -t 1.126822294 -s 0 -d -1 -p tcp -e 1040 -c 2 -a 0 -i 12 -k AGT
h -t 1.126822294 -s 0 -d -1 -p tcp -e 1040 -c 2 -a 0 -i 12 -k AGT
+ -t 1.126822294 -s 0 -d 6 -p tcp -e 1080 -c 2 -a 0 -i 11 -k RTR 
- -t 1.126822294 -s 0 -d 6 -p tcp -e 1080 -c 2 -a 0 -i 11 -k RTR
h -t 1.126822294 -s 0 -d 6 -p tcp -e 1080 -c 2 -a 0 -i 11 -k RTR
+ -t 1.126822294 -s 0 -d 6 -p tcp -e 1080 -c 2 -a 0 -i 12 -k RTR 
- -t 1.126822294 -s 0 -d 6 -p tcp -e 1080 -c 2 -a 0 -i 12 -k RTR
h -t 1.126822294 -s 0 -d 6 -p tcp -e 1080 -c 2 -a 0 -i 12 -k RTR
+ -t 1.132473847 -s 8 -d 0 -p DSR -e 52 -c 2 -a 0 -i 9 -k RTR 
- -t 1.132473847 -s 8 -d 0 -p DSR -e 52 -c 2 -a 0 -i 9 -k RTR
h -t 1.132473847 -s 8 -d 0 -p DSR -e 52 -c 2 -a 0 -i 9 -k RTR
+ -t 1.142890692 -s 6 -d 9 -p tcp -e 1080 -c 2 -a 0 -i 11 -k RTR 
- -t 1.142890692 -s 6 -d 9 -p tcp -e 1080 -c 2 -a 0 -i 11 -k RTR
h -t 1.142890692 -s 6 -d 9 -p tcp -e 1080 -c 2 -a 0 -i 11 -k RTR
+ -t 1.155198676 -s 6 -d 9 -p tcp -e 1080 -c 2 -a 0 -i 12 -k RTR 
- -t 1.155198676 -s 6 -d 9 -p tcp -e 1080 -c 2 -a 0 -i 12 -k RTR
h -t 1.155198676 -s 6 -d 9 -p tcp -e 1080 -c 2 -a 0 -i 12 -k RTR
r -t 1.165403676 -s 9 -d 9 -p tcp -e 1040 -c 2 -a 0 -i 11 -k AGT
+ -t 1.165403676 -s 9 -d -1 -p ack -e 40 -c 2 -a 0 -i 13 -k AGT 
- -t 1.165403676 -s 9 -d -1 -p ack -e 40 -c 2 -a 0 -i 13 -k AGT
h -t 1.165403676 -s 9 -d -1 -p ack -e 40 -c 2 -a 0 -i 13 -k AGT
+ -t 1.165403676 -s 9 -d 2 -p ack -e 80 -c 2 -a 0 -i 13 -k RTR 
- -t 1.165403676 -s 9 -d 2 -p ack -e 80 -c 2 -a 0 -i 13 -k RTR
h -t 1.165403676 -s 9 -d 2 -p ack -e 80 -c 2 -a 0 -i 13 -k RTR
+ -t 1.168588342 -s 2 -d 0 -p ack -e 80 -c 2 -a 0 -i 13 -k RTR 
- -t 1.168588342 -s 2 -d 0 -p ack -e 80 -c 2 -a 0 -i 13 -k RTR
h -t 1.168588342 -s 2 -d 0 -p ack -e 80 -c 2 -a 0 -i 13 -k RTR
r -t 1.180774326 -s 9 -d 9 -p tcp -e 1040 -c 2 -a 0 -i 12 -k AGT
+ -t 1.180774326 -s 9 -d -1 -p ack -e 40 -c 2 -a 0 -i 14 -k AGT 
- -t 1.180774326 -s 9 -d -1 -p ack -e 40 -c 2 -a 0 -i 14 -k AGT
h -t 1.180774326 -s 9 -d -1 -p ack -e 40 -c 2 -a 0 -i 14 -k AGT
+ -t 1.180774326 -s 9 -d 2 -p ack -e 80 -c 2 -a 0 -i 14 -k RTR 
- -t 1.180774326 -s 9 -d 2 -p ack -e 80 -c 2 -a 0 -i 14 -k RTR
h -t 1.180774326 -s 9 -d 2 -p ack -e 80 -c 2 -a 0 -i 14 -k RTR
r -t 1.184963562 -s 0 -d 0 -p ack -e 40 -c 2 -a 0 -i 13 -k AGT
+ -t 1.184963562 -s 0 -d -1 -p tcp -e 1040 -c 2 -a 0 -i 15 -k AGT 
- -t 1.184963562 -s 0 -d -1 -p tcp -e 1040 -c 2 -a 0 -i 15 -k AGT
h -t 1.184963562 -s 0 -d -1 -p tcp -e 1040 -c 2 -a 0 -i 15 -k AGT
+ -t 1.184963562 -s 0 -d -1 -p tcp -e 1040 -c 2 -a 0 -i 16 -k AGT 
- -t 1.184963562 -s 0 -d -1 -p tcp -e 1040 -c 2 -a 0 -i 16 -k AGT
h -t 1.184963562 -s 0 -d -1 -p tcp -e 1040 -c 2 -a 0 -i 16 -k AGT
+ -t 1.184963562 -s 0 -d 6 -p tcp -e 1060 -c 2 -a 0 -i 15 -k RTR 
- -t 1.184963562 -s 0 -d 6 -p tcp -e 1060 -c 2 -a 0 -i 15 -k RTR
h -t 1.184963562 -s 0 -d 6 -p tcp -e 1060 -c 2 -a 0 -i 15 -k RTR
+ -t 1.184963562 -s 0 -d 6 -p tcp -e 1060 -c 2 -a 0 -i 16 -k RTR 
- -t 1.184963562 -s 0 -d 6 -p tcp -e 1060 -c 2 -a 0 -i 16 -k RTR
h -t 1.184963562 -s 0 -d 6 -p tcp -e 1060 -c 2 -a 0 -i 16 -k RTR
+ -t 1.194989798 -s 6 -d 9 -p tcp -e 1060 -c 2 -a 0 -i 15 -k RTR 
- -t 1.194989798 -s 6 -d 9 -p tcp -e 1060 -c 2 -a 0 -i 15 -k RTR
h -t 1.194989798 -s 6 -d 9 -p tcp -e 1060 -c 2 -a 0 -i 15 -k RTR
r -t 1.205034798 -s 9 -d 9 -p tcp -e 1040 -c 2 -a 0 -i 15 -k AGT
+ -t 1.205034798 -s 9 -d -1 -p ack -e 40 -c 2 -a 0 -i 17 -k AGT 
- -t 1.205034798 -s 9 -d -1 -p ack -e 40 -c 2 -a 0 -i 17 -k AGT
h -t 1.205034798 -s 9 -d -1 -p ack -e 40 -c 2 -a 0 -i 17 -k AGT
+ -t 1.205034798 -s 9 -d 2 -p ack -e 60 -c 2 -a 0 -i 17 -k RTR 
- -t 1.205034798 -s 9 -d 2 -p ack -e 60 -c 2 -a 0 -i 17 -k RTR
h -t 1.205034798 -s 9 -d 2 -p ack -e 60 -c 2 -a 0 -i 17 -k RTR
+ -t 1.207340798 -s 2 -d 0 -p ack -e 80 -c 2 -a 0 -i 14 -k RTR 
- -t 1.207340798 -s 2 -d 0 -p ack -e 80 -c 2 -a 0 -i 14 -k RTR
h -t 1.207340798 -s 2 -d 0 -p ack -e 80 -c 2 -a 0 -i 14 -k RTR
r -t 1.209546798 -s 0 -d 0 -p ack -e 40 -c 2 -a 0 -i 14 -k AGT
+ -t 1.209546798 -s 0 -d -1 -p tcp -e 1040 -c 2 -a 0 -i 18 -k AGT 
- -t 1.209546798 -s 0 -d -1 -p tcp -e 1040 -c 2 -a 0 -i 18 -k AGT
h -t 1.209546798 -s 0 -d -1 -p tcp -e 1040 -c 2 -a 0 -i 18 -k AGT
+ -t 1.209546798 -s 0 -d -1 -p tcp -e 1040 -c 2 -a 0 -i 19 -k AGT 
- -t 1.209546798 -s 0 -d -1 -p tcp -e 1040 -c 2 -a 0 -i 19 -k AGT
h -t 1.209546798 -s 0 -d -1 -p tcp -e 1040 -c 2 -a 0 -i 19 -k AGT
+ -t 1.209546798 -s 0 -d 6 -p tcp -e 1060 -c 2 -a 0 -i 18 -k RTR 
- -t 1.209546798 -s 0 -d 6 -p tcp -e 1060 -c 2 -a 0 -i 18 -k RTR
h -t 1.209546798 -s 0 -d 6 -p tcp -e 1060 -c 2 -a 0 -i 18 -k RTR
+ -t 1.209546798 -s 0 -d 6 -p tcp -e 1060 -c 2 -a 0 -i 19 -k RTR 
- -t 1.209546798 -s 0 -d 6 -p tcp -e 1060 -c 2 -a 0 -i 19 -k RTR
h -t 1.209546798 -s 0 -d 6 -p tcp -e 1060 -c 2 -a 0 -i 19 -k RTR
+ -t 1.219933034 -s 6 -d 9 -p tcp -e 1060 -c 2 -a 0 -i 16 -k RTR 
- -t 1.219933034 -s 6 -d 9 -p tcp -e 1060 -c 2 -a 0 -i 16 -k RTR
h -t 1.219933034 -s 6 -d 9 -p tcp -e 1060 -c 2 -a 0 -i 16 -k RTR
+ -t 1.229940016 -s 6 -d 9 -p tcp -e 1060 -c 2 -a 0 -i 18 -k RTR 
- -t 1.229940016 -s 6 -d 9 -p tcp -e 1060 -c 2 -a 0 -i 18 -k RTR
h -t 1.229940016 -s 6 -d 9 -p tcp -e 1060 -c 2 -a 0 -i 18 -k RTR
+ -t 1.232156213 -s 2 -d 0 -p ack -e 60 -c 2 -a 0 -i 17 -k RTR 
- -t 1.232156213 -s 2 -d 0 -p ack -e 60 -c 2 -a 0 -i 17 -k RTR
h -t 1.232156213 -s 2 -d 0 -p ack -e 60 -c 2 -a 0 -i 17 -k RTR
r -t 1.242301546 -s 9 -d 9 -p tcp -e 1040 -c 2 -a 0 -i 16 -k AGT
+ -t 1.242301546 -s 9 -d -1 -p ack -e 40 -c 2 -a 0 -i 20 -k AGT 
- -t 1.242301546 -s 9 -d -1 -p ack -e 40 -c 2 -a 0 -i 20 -k AGT
h -t 1.242301546 -s 9 -d -1 -p ack -e 40 -c 2 -a 0 -i 20 -k AGT
+ -t 1.242301546 -s 9 -d 2 -p ack -e 60 -c 2 -a 0 -i 20 -k RTR 
- -t 1.242301546 -s 9 -d 2 -p ack -e 60 -c 2 -a 0 -i 20 -k RTR
h -t 1.242301546 -s 9 -d 2 -p ack -e 60 -c 2 -a 0 -i 20 -k RTR
r -t 1.252286880 -s 9 -d 9 -p tcp -e 1040 -c 2 -a 0 -i 18 -k AGT
+ -t 1.252286880 -s 9 -d -1 -p ack -e 40 -c 2 -a 0 -i 21 -k AGT 
- -t 1.252286880 -s 9 -d -1 -p ack -e 40 -c 2 -a 0 -i 21 -k AGT
h -t 1.252286880 -s 9 -d -1 -p ack -e 40 -c 2 -a 0 -i 21 -k AGT
+ -t 1.252286880 -s 9 -d 2 -p ack -e 60 -c 2 -a 0 -i 21 -k RTR 
- -t 1.252286880 -s 9 -d 2 -p ack -e 60 -c 2 -a 0 -i 21 -k RTR
h -t 1.252286880 -s 9 -d 2 -p ack -e 60 -c 2 -a 0 -i 21 -k RTR
+ -t 1.254472880 -s 2 -d 0 -p ack -e 60 -c 2 -a 0 -i 20 -k RTR 
- -t 1.254472880 -s 2 -d 0 -p ack -e 60 -c 2 -a 0 -i 20 -k RTR
h -t 1.254472880 -s 2 -d 0 -p ack -e 60 -c 2 -a 0 -i 20 -k RTR
r -t 1.256558880 -s 0 -d 0 -p ack -e 40 -c 2 -a 0 -i 17 -k AGT
+ -t 1.256558880 -s 0 -d -1 -p tcp -e 1040 -c 2 -a 0 -i 22 -k AGT 
- -t 1.256558880 -s 0 -d -1 -p tcp -e 1040 -c 2 -a 0 -i 22 -k AGT
h -t 1.256558880 -s 0 -d -1 -p tcp -e 1040 -c 2 -a 0 -i 22 -k AGT
+ -t 1.256558880 -s 0 -d -1 -p tcp -e 1040 -c 2 -a 0 -i 23 -k AGT 
- -t 1.256558880 -s 0 -d -1 -p tcp -e 1040 -c 2 -a 0 -i 23 -k AGT
h -t 1.256558880 -s 0 -d -1 -p tcp -e 1040 -c 2 -a 0 -i 23 -k AGT
+ -t 1.256558880 -s 0 -d 6 -p tcp -e 1060 -c 2 -a 0 -i 22 -k RTR 
- -t 1.256558880 -s 0 -d 6 -p tcp -e 1060 -c 2 -a 0 -i 22 -k RTR
h -t 1.256558880 -s 0 -d 6 -p tcp -e 1060 -c 2 -a 0 -i 22 -k RTR
+ -t 1.256558880 -s 0 -d 6 -p tcp -e 1060 -c 2 -a 0 -i 23 -k RTR 
- -t 1.256558880 -s 0 -d 6 -p tcp -e 1060 -c 2 -a 0 -i 23 -k RTR
h -t 1.256558880 -s 0 -d 6 -p tcp -e 1060 -c 2 -a 0 -i 23 -k RTR
+ -t 1.266665116 -s 6 -d 9 -p tcp -e 1060 -c 2 -a 0 -i 19 -k RTR 
- -t 1.266665116 -s 6 -d 9 -p tcp -e 1060 -c 2 -a 0 -i 19 -k RTR
h -t 1.266665116 -s 6 -d 9 -p tcp -e 1060 -c 2 -a 0 -i 19 -k RTR
+ -t 1.276732097 -s 6 -d 9 -p tcp -e 1060 -c 2 -a 0 -i 22 -k RTR 
- -t 1.276732097 -s 6 -d 9 -p tcp -e 1060 -c 2 -a 0 -i 22 -k RTR
h -t 1.276732097 -s 6 -d 9 -p tcp -e 1060 -c 2 -a 0 -i 22 -k RTR
r -t 1.287964588 -s 9 -d 9 -p tcp -e 1040 -c 2 -a 0 -i 19 -k AGT
+ -t 1.287964588 -s 9 -d -1 -p ack -e 40 -c 2 -a 0 -i 24 -k AGT 
- -t 1.287964588 -s 9 -d -1 -p ack -e 40 -c 2 -a 0 -i 24 -k AGT
h -t 1.287964588 -s 9 -d -1 -p ack -e 40 -c 2 -a 0 -i 24 -k AGT
+ -t 1.287964588 -s 9 -d 2 -p ack -e 60 -c 2 -a 0 -i 24 -k RTR 
- -t 1.287964588 -s 9 -d 2 -p ack -e 60 -c 2 -a 0 -i 24 -k RTR
h -t 1.287964588 -s 9 -d 2 -p ack -e 60 -c 2 -a 0 -i 24 -k RTR
+ -t 1.289970588 -s 2 -d 0 -p ack -e 60 -c 2 -a 0 -i 21 -k RTR 
- -t 1.289970588 -s 2 -d 0 -p ack -e 60 -c 2 -a 0 -i 21 -k RTR
h -t 1.289970588 -s 2 -d 0 -p ack -e 60 -c 2 -a 0 -i 21 -k RTR
r -t 1.292096588 -s 0 -d 0 -p ack -e 40 -c 2 -a 0 -i 20 -k AGT
+ -t 1.292096588 -s 0 -d -1 -p tcp -e 1040 -c 2 -a 0 -i 25 -k AGT 
- -t 1.292096588 -s 0 -d -1 -p tcp -e 1040 -c 2 -a 0 -i 25 -k AGT
h -t 1.292096588 -s 0 -d -1 -p tcp -e 1040 -c 2 -a 0 -i 25 -k AGT
+ -t 1.292096588 -s 0 -d -1 -p tcp -e 1040 -c 2 -a 0 -i 26 -k AGT 
- -t 1.292096588 -s 0 -d -1 -p tcp -e 1040 -c 2 -a 0 -i 26 -k AGT
h -t 1.292096588 -s 0 -d -1 -p tcp -e 1040 -c 2 -a 0 -i 26 -k AGT
+ -t 1.292096588 -s 0 -d 6 -p tcp -e 1060 -c 2 -a 0 -i 25 -k RTR 
- -t 1.292096588 -s 0 -d 6 -p tcp -e 1060 -c 2 -a 0 -i 25 -k RTR
h -t 1.292096588 -s 0 -d 6 -p tcp -e 1060 -c 2 -a 0 -i 25 -k RTR
+ -t 1.292096588 -s 0 -d 6 -p tcp -e 1060 -c 2 -a 0 -i 26 -k RTR 
- -t 1.292096588 -s 0 -d 6 -p tcp -e 1060 -c 2 -a 0 -i 26 -k RTR
h -t 1.292096588 -s 0 -d 6 -p tcp -e 1060 -c 2 -a 0 -i 26 -k RTR
r -t 1.302242333 -s 9 -d 9 -p tcp -e 1040 -c 2 -a 0 -i 22 -k AGT
+ -t 1.302242333 -s 9 -d -1 -p ack -e 40 -c 2 -a 0 -i 27 -k AGT 
- -t 1.302242333 -s 9 -d -1 -p ack -e 40 -c 2 -a 0 -i 27 -k AGT
h -t 1.302242333 -s 9 -d -1 -p ack -e 40 -c 2 -a 0 -i 27 -k AGT
+ -t 1.302242333 -s 9 -d 2 -p ack -e 60 -c 2 -a 0 -i 27 -k RTR 
- -t 1.302242333 -s 9 -d 2 -p ack -e 60 -c 2 -a 0 -i 27 -k RTR
h -t 1.302242333 -s 9 -d 2 -p ack -e 60 -c 2 -a 0 -i 27 -k RTR
r -t 1.304249000 -s 0 -d 0 -p ack -e 40 -c 2 -a 0 -i 21 -k AGT
+ -t 1.304249000 -s 0 -d -1 -p tcp -e 1040 -c 2 -a 0 -i 28 -k AGT 
- -t 1.304249000 -s 0 -d -1 -p tcp -e 1040 -c 2 -a 0 -i 28 -k AGT
h -t 1.304249000 -s 0 -d -1 -p tcp -e 1040 -c 2 -a 0 -i 28 -k AGT
+ -t 1.304249000 -s 0 -d -1 -p tcp -e 1040 -c 2 -a 0 -i 29 -k AGT 
- -t 1.304249000 -s 0 -d -1 -p tcp -e 1040 -c 2 -a 0 -i 29 -k AGT
h -t 1.304249000 -s 0 -d -1 -p tcp -e 1040 -c 2 -a 0 -i 29 -k AGT
+ -t 1.304249000 -s 0 -d 6 -p tcp -e 1060 -c 2 -a 0 -i 28 -k RTR 
- -t 1.304249000 -s 0 -d 6 -p tcp -e 1060 -c 2 -a 0 -i 28 -k RTR
h -t 1.304249000 -s 0 -d 6 -p tcp -e 1060 -c 2 -a 0 -i 28 -k RTR
+ -t 1.304249000 -s 0 -d 6 -p tcp -e 1060 -c 2 -a 0 -i 29 -k RTR 
- -t 1.304249000 -s 0 -d 6 -p tcp -e 1060 -c 2 -a 0 -i 29 -k RTR
h -t 1.304249000 -s 0 -d 6 -p tcp -e 1060 -c 2 -a 0 -i 29 -k RTR
+ -t 1.306859943 -s 2 -d 0 -p ack -e 60 -c 2 -a 0 -i 24 -k RTR 
- -t 1.306859943 -s 2 -d 0 -p ack -e 60 -c 2 -a 0 -i 24 -k RTR
h -t 1.306859943 -s 2 -d 0 -p ack -e 60 -c 2 -a 0 -i 24 -k RTR
+ -t 1.316956455 -s 6 -d 9 -p tcp -e 1060 -c 2 -a 0 -i 23 -k RTR 
- -t 1.316956455 -s 6 -d 9 -p tcp -e 1060 -c 2 -a 0 -i 23 -k RTR
h -t 1.316956455 -s 6 -d 9 -p tcp -e 1060 -c 2 -a 0 -i 23 -k RTR
r -t 1.318982788 -s 0 -d 0 -p ack -e 40 -c 2 -a 0 -i 24 -k AGT
+ -t 1.318982788 -s 0 -d -1 -p tcp -e 1040 -c 2 -a 0 -i 30 -k AGT 
- -t 1.318982788 -s 0 -d -1 -p tcp -e 1040 -c 2 -a 0 -i 30 -k AGT
h -t 1.318982788 -s 0 -d -1 -p tcp -e 1040 -c 2 -a 0 -i 30 -k AGT
+ -t 1.318982788 -s 0 -d -1 -p tcp -e 1040 -c 2 -a 0 -i 31 -k AGT 
- -t 1.318982788 -s 0 -d -1 -p tcp -e 1040 -c 2 -a 0 -i 31 -k AGT
h -t 1.318982788 -s 0 -d -1 -p tcp -e 1040 -c 2 -a 0 -i 31 -k AGT
+ -t 1.318982788 -s 0 -d 6 -p tcp -e 1060 -c 2 -a 0 -i 30 -k RTR 
- -t 1.318982788 -s 0 -d 6 -p tcp -e 1060 -c 2 -a 0 -i 30 -k RTR
h -t 1.318982788 -s 0 -d 6 -p tcp -e 1060 -c 2 -a 0 -i 30 -k RTR
+ -t 1.318982788 -s 0 -d 6 -p tcp -e 1060 -c 2 -a 0 -i 31 -k RTR 
- -t 1.318982788 -s 0 -d 6 -p tcp -e 1060 -c 2 -a 0 -i 31 -k RTR
h -t 1.318982788 -s 0 -d 6 -p tcp -e 1060 -c 2 -a 0 -i 31 -k RTR
r -t 1.329428534 -s 9 -d 9 -p tcp -e 1040 -c 2 -a 0 -i 23 -k AGT
+ -t 1.329428534 -s 9 -d -1 -p ack -e 40 -c 2 -a 0 -i 32 -k AGT 
- -t 1.329428534 -s 9 -d -1 -p ack -e 40 -c 2 -a 0 -i 32 -k AGT
h -t 1.329428534 -s 9 -d -1 -p ack -e 40 -c 2 -a 0 -i 32 -k AGT
+ -t 1.329428534 -s 9 -d 2 -p ack -e 60 -c 2 -a 0 -i 32 -k RTR 
- -t 1.329428534 -s 9 -d 2 -p ack -e 60 -c 2 -a 0 -i 32 -k RTR
h -t 1.329428534 -s 9 -d 2 -p ack -e 60 -c 2 -a 0 -i 32 -k RTR
+ -t 1.331594534 -s 2 -d 0 -p ack -e 60 -c 2 -a 0 -i 27 -k RTR 
- -t 1.331594534 -s 2 -d 0 -p ack -e 60 -c 2 -a 0 -i 27 -k RTR
h -t 1.331594534 -s 2 -d 0 -p ack -e 60 -c 2 -a 0 -i 27 -k RTR
+ -t 1.341711046 -s 6 -d 9 -p tcp -e 1060 -c 2 -a 0 -i 25 -k RTR 
- -t 1.341711046 -s 6 -d 9 -p tcp -e 1060 -c 2 -a 0 -i 25 -k RTR
h -t 1.341711046 -s 6 -d 9 -p tcp -e 1060 -c 2 -a 0 -i 25 -k RTR
r -t 1.343717379 -s 0 -d 0 -p ack -e 40 -c 2 -a 0 -i 27 -k AGT
+ -t 1.343717379 -s 0 -d -1 -p tcp -e 1040 -c 2 -a 0 -i 33 -k AGT 
- -t 1.343717379 -s 0 -d -1 -p tcp -e 1040 -c 2 -a 0 -i 33 -k AGT
h -t 1.343717379 -s 0 -d -1 -p tcp -e 1040 -c 2 -a 0 -i 33 -k AGT
+ -t 1.343717379 -s 0 -d -1 -p tcp -e 1040 -c 2 -a 0 -i 34 -k AGT 
- -t 1.343717379 -s 0 -d -1 -p tcp -e 1040 -c 2 -a 0 -i 34 -k AGT
h -t 1.343717379 -s 0 -d -1 -p tcp -e 1040 -c 2 -a 0 -i 34 -k AGT
+ -t 1.343717379 -s 0 -d 6 -p tcp -e 1060 -c 2 -a 0 -i 33 -k RTR 
- -t 1.343717379 -s 0 -d 6 -p tcp -e 1060 -c 2 -a 0 -i 33 -k RTR
h -t 1.343717379 -s 0 -d 6 -p tcp -e 1060 -c 2 -a 0 -i 33 -k RTR
+ -t 1.343717379 -s 0 -d 6 -p tcp -e 1060 -c 2 -a 0 -i 34 -k RTR 
- -t 1.343717379 -s 0 -d 6 -p tcp -e 1060 -c 2 -a 0 -i 34 -k RTR
h -t 1.343717379 -s 0 -d 6 -p tcp -e 1060 -c 2 -a 0 -i 34 -k RTR
r -t 1.353723125 -s 9 -d 9 -p tcp -e 1040 -c 2 -a 0 -i 25 -k AGT
+ -t 1.353723125 -s 9 -d -1 -p ack -e 40 -c 2 -a 0 -i 35 -k AGT 
- -t 1.353723125 -s 9 -d -1 -p ack -e 40 -c 2 -a 0 -i 35 -k AGT
h -t 1.353723125 -s 9 -d -1 -p ack -e 40 -c 2 -a 0 -i 35 -k AGT
+ -t 1.353723125 -s 9 -d 2 -p ack -e 60 -c 2 -a 0 -i 35 -k RTR 
- -t 1.353723125 -s 9 -d 2 -p ack -e 60 -c 2 -a 0 -i 35 -k RTR
h -t 1.353723125 -s 9 -d 2 -p ack -e 60 -c 2 -a 0 -i 35 -k RTR
+ -t 1.356149125 -s 2 -d 0 -p ack -e 60 -c 2 -a 0 -i 32 -k RTR 
- -t 1.356149125 -s 2 -d 0 -p ack -e 60 -c 2 -a 0 -i 32 -k RTR
h -t 1.356149125 -s 2 -d 0 -p ack -e 60 -c 2 -a 0 -i 32 -k RTR
+ -t 1.358235791 -s 2 -d 0 -p ack -e 60 -c 2 -a 0 -i 35 -k RTR 
- -t 1.358235791 -s 2 -d 0 -p ack -e 60 -c 2 -a 0 -i 35 -k RTR
h -t 1.358235791 -s 2 -d 0 -p ack -e 60 -c 2 -a 0 -i 35 -k RTR
+ -t 1.368592303 -s 6 -d 9 -p tcp -e 1060 -c 2 -a 0 -i 26 -k RTR 
- -t 1.368592303 -s 6 -d 9 -p tcp -e 1060 -c 2 -a 0 -i 26 -k RTR
h -t 1.368592303 -s 6 -d 9 -p tcp -e 1060 -c 2 -a 0 -i 26 -k RTR
r -t 1.370658637 -s 0 -d 0 -p ack -e 40 -c 2 -a 0 -i 32 -k AGT
+ -t 1.370658637 -s 0 -d -1 -p tcp -e 1040 -c 2 -a 0 -i 36 -k AGT 
- -t 1.370658637 -s 0 -d -1 -p tcp -e 1040 -c 2 -a 0 -i 36 -k AGT
h -t 1.370658637 -s 0 -d -1 -p tcp -e 1040 -c 2 -a 0 -i 36 -k AGT
+ -t 1.370658637 -s 0 -d -1 -p tcp -e 1040 -c 2 -a 0 -i 37 -k AGT 
- -t 1.370658637 -s 0 -d -1 -p tcp -e 1040 -c 2 -a 0 -i 37 -k AGT
h -t 1.370658637 -s 0 -d -1 -p tcp -e 1040 -c 2 -a 0 -i 37 -k AGT
+ -t 1.370658637 -s 0 -d 6 -p tcp -e 1060 -c 2 -a 0 -i 36 -k RTR 
- -t 1.370658637 -s 0 -d 6 -p tcp -e 1060 -c 2 -a 0 -i 36 -k RTR
h -t 1.370658637 -s 0 -d 6 -p tcp -e 1060 -c 2 -a 0 -i 36 -k RTR
+ -t 1.370658637 -s 0 -d 6 -p tcp -e 1060 -c 2 -a 0 -i 37 -k RTR 
- -t 1.370658637 -s 0 -d 6 -p tcp -e 1060 -c 2 -a 0 -i 37 -k RTR
h -t 1.370658637 -s 0 -d 6 -p tcp -e 1060 -c 2 -a 0 -i 37 -k RTR
+ -t 1.380704873 -s 6 -d 9 -p tcp -e 1060 -c 2 -a 0 -i 28 -k RTR 
- -t 1.380704873 -s 6 -d 9 -p tcp -e 1060 -c 2 -a 0 -i 28 -k RTR
h -t 1.380704873 -s 6 -d 9 -p tcp -e 1060 -c 2 -a 0 -i 28 -k RTR
r -t 1.390749873 -s 9 -d 9 -p tcp -e 1040 -c 2 -a 0 -i 26 -k AGT
+ -t 1.390749873 -s 9 -d -1 -p ack -e 40 -c 2 -a 0 -i 38 -k AGT 
- -t 1.390749873 -s 9 -d -1 -p ack -e 40 -c 2 -a 0 -i 38 -k AGT
h -t 1.390749873 -s 9 -d -1 -p ack -e 40 -c 2 -a 0 -i 38 -k AGT
+ -t 1.390749873 -s 9 -d 2 -p ack -e 60 -c 2 -a 0 -i 38 -k RTR 
- -t 1.390749873 -s 9 -d 2 -p ack -e 60 -c 2 -a 0 -i 38 -k RTR
h -t 1.390749873 -s 9 -d 2 -p ack -e 60 -c 2 -a 0 -i 38 -k RTR
r -t 1.392816539 -s 0 -d 0 -p ack -e 40 -c 2 -a 0 -i 35 -k AGT
+ -t 1.392816539 -s 0 -d -1 -p tcp -e 1040 -c 2 -a 0 -i 39 -k AGT 
- -t 1.392816539 -s 0 -d -1 -p tcp -e 1040 -c 2 -a 0 -i 39 -k AGT
h -t 1.392816539 -s 0 -d -1 -p tcp -e 1040 -c 2 -a 0 -i 39 -k AGT
+ -t 1.392816539 -s 0 -d -1 -p tcp -e 1040 -c 2 -a 0 -i 40 -k AGT 
- -t 1.392816539 -s 0 -d -1 -p tcp -e 1040 -c 2 -a 0 -i 40 -k AGT
h -t 1.392816539 -s 0 -d -1 -p tcp -e 1040 -c 2 -a 0 -i 40 -k AGT
+ -t 1.392816539 -s 0 -d 6 -p tcp -e 1060 -c 2 -a 0 -i 39 -k RTR 
- -t 1.392816539 -s 0 -d 6 -p tcp -e 1060 -c 2 -a 0 -i 39 -k RTR
h -t 1.392816539 -s 0 -d 6 -p tcp -e 1060 -c 2 -a 0 -i 39 -k RTR
+ -t 1.392816539 -s 0 -d 6 -p tcp -e 1060 -c 2 -a 0 -i 40 -k RTR 
- -t 1.392816539 -s 0 -d 6 -p tcp -e 1060 -c 2 -a 0 -i 40 -k RTR
h -t 1.392816539 -s 0 -d 6 -p tcp -e 1060 -c 2 -a 0 -i 40 -k RTR
r -t 1.402962285 -s 9 -d 9 -p tcp -e 1040 -c 2 -a 0 -i 28 -k AGT
+ -t 1.402962285 -s 9 -d -1 -p ack -e 40 -c 2 -a 0 -i 41 -k AGT 
- -t 1.402962285 -s 9 -d -1 -p ack -e 40 -c 2 -a 0 -i 41 -k AGT
h -t 1.402962285 -s 9 -d -1 -p ack -e 40 -c 2 -a 0 -i 41 -k AGT
+ -t 1.402962285 -s 9 -d 2 -p ack -e 60 -c 2 -a 0 -i 41 -k RTR 
- -t 1.402962285 -s 9 -d 2 -p ack -e 60 -c 2 -a 0 -i 41 -k RTR
h -t 1.402962285 -s 9 -d 2 -p ack -e 60 -c 2 -a 0 -i 41 -k RTR
+ -t 1.405088285 -s 2 -d 0 -p ack -e 60 -c 2 -a 0 -i 38 -k RTR 
- -t 1.405088285 -s 2 -d 0 -p ack -e 60 -c 2 -a 0 -i 38 -k RTR
h -t 1.405088285 -s 2 -d 0 -p ack -e 60 -c 2 -a 0 -i 38 -k RTR
+ -t 1.407114952 -s 2 -d 0 -p ack -e 60 -c 2 -a 0 -i 41 -k RTR 
- -t 1.407114952 -s 2 -d 0 -p ack -e 60 -c 2 -a 0 -i 41 -k RTR
h -t 1.407114952 -s 2 -d 0 -p ack -e 60 -c 2 -a 0 -i 41 -k RTR
r -t 1.409280952 -s 0 -d 0 -p ack -e 40 -c 2 -a 0 -i 38 -k AGT
+ -t 1.409280952 -s 0 -d -1 -p tcp -e 1040 -c 2 -a 0 -i 42 -k AGT 
- -t 1.409280952 -s 0 -d -1 -p tcp -e 1040 -c 2 -a 0 -i 42 -k AGT
h -t 1.409280952 -s 0 -d -1 -p tcp -e 1040 -c 2 -a 0 -i 42 -k AGT
+ -t 1.409280952 -s 0 -d -1 -p tcp -e 1040 -c 2 -a 0 -i 43 -k AGT 
- -t 1.409280952 -s 0 -d -1 -p tcp -e 1040 -c 2 -a 0 -i 43 -k AGT
h -t 1.409280952 -s 0 -d -1 -p tcp -e 1040 -c 2 -a 0 -i 43 -k AGT
+ -t 1.409280952 -s 0 -d 6 -p tcp -e 1060 -c 2 -a 0 -i 42 -k RTR 
- -t 1.409280952 -s 0 -d 6 -p tcp -e 1060 -c 2 -a 0 -i 42 -k RTR
h -t 1.409280952 -s 0 -d 6 -p tcp -e 1060 -c 2 -a 0 -i 42 -k RTR
+ -t 1.409280952 -s 0 -d 6 -p tcp -e 1060 -c 2 -a 0 -i 43 -k RTR 
- -t 1.409280952 -s 0 -d 6 -p tcp -e 1060 -c 2 -a 0 -i 43 -k RTR
h -t 1.409280952 -s 0 -d 6 -p tcp -e 1060 -c 2 -a 0 -i 43 -k RTR
+ -t 1.419467188 -s 6 -d 9 -p tcp -e 1060 -c 2 -a 0 -i 29 -k RTR 
- -t 1.419467188 -s 6 -d 9 -p tcp -e 1060 -c 2 -a 0 -i 29 -k RTR
h -t 1.419467188 -s 6 -d 9 -p tcp -e 1060 -c 2 -a 0 -i 29 -k RTR
+ -t 1.429574169 -s 6 -d 9 -p tcp -e 1060 -c 2 -a 0 -i 30 -k RTR 
- -t 1.429574169 -s 6 -d 9 -p tcp -e 1060 -c 2 -a 0 -i 30 -k RTR
h -t 1.429574169 -s 6 -d 9 -p tcp -e 1060 -c 2 -a 0 -i 30 -k RTR
r -t 1.431720502 -s 0 -d 0 -p ack -e 40 -c 2 -a 0 -i 41 -k AGT
+ -t 1.431720502 -s 0 -d -1 -p tcp -e 1040 -c 2 -a 0 -i 44 -k AGT 
- -t 1.431720502 -s 0 -d -1 -p tcp -e 1040 -c 2 -a 0 -i 44 -k AGT
h -t 1.431720502 -s 0 -d -1 -p tcp -e 1040 -c 2 -a 0 -i 44 -k AGT
+ -t 1.431720502 -s 0 -d -1 -p tcp -e 1040 -c 2 -a 0 -i 45 -k AGT 
- -t 1.431720502 -s 0 -d -1 -p tcp -e 1040 -c 2 -a 0 -i 45 -k AGT
h -t 1.431720502 -s 0 -d -1 -p tcp -e 1040 -c 2 -a 0 -i 45 -k AGT
+ -t 1.431720502 -s 0 -d 6 -p tcp -e 1060 -c 2 -a 0 -i 44 -k RTR 
- -t 1.431720502 -s 0 -d 6 -p tcp -e 1060 -c 2 -a 0 -i 44 -k RTR
h -t 1.431720502 -s 0 -d 6 -p tcp -e 1060 -c 2 -a 0 -i 44 -k RTR
+ -t 1.431720502 -s 0 -d 6 -p tcp -e 1060 -c 2 -a 0 -i 45 -k RTR 
- -t 1.431720502 -s 0 -d 6 -p tcp -e 1060 -c 2 -a 0 -i 45 -k RTR
h -t 1.431720502 -s 0 -d 6 -p tcp -e 1060 -c 2 -a 0 -i 45 -k RTR
r -t 1.441806248 -s 9 -d 9 -p tcp -e 1040 -c 2 -a 0 -i 29 -k AGT
+ -t 1.441806248 -s 9 -d -1 -p ack -e 40 -c 2 -a 0 -i 46 -k AGT 
- -t 1.441806248 -s 9 -d -1 -p ack -e 40 -c 2 -a 0 -i 46 -k AGT
h -t 1.441806248 -s 9 -d -1 -p ack -e 40 -c 2 -a 0 -i 46 -k AGT
+ -t 1.441806248 -s 9 -d 2 -p ack -e 60 -c 2 -a 0 -i 46 -k RTR 
- -t 1.441806248 -s 9 -d 2 -p ack -e 60 -c 2 -a 0 -i 46 -k RTR
h -t 1.441806248 -s 9 -d 2 -p ack -e 60 -c 2 -a 0 -i 46 -k RTR
r -t 1.451811581 -s 9 -d 9 -p tcp -e 1040 -c 2 -a 0 -i 30 -k AGT
+ -t 1.451811581 -s 9 -d -1 -p ack -e 40 -c 2 -a 0 -i 47 -k AGT 
- -t 1.451811581 -s 9 -d -1 -p ack -e 40 -c 2 -a 0 -i 47 -k AGT
h -t 1.451811581 -s 9 -d -1 -p ack -e 40 -c 2 -a 0 -i 47 -k AGT
+ -t 1.451811581 -s 9 -d 2 -p ack -e 60 -c 2 -a 0 -i 47 -k RTR 
- -t 1.451811581 -s 9 -d 2 -p ack -e 60 -c 2 -a 0 -i 47 -k RTR
h -t 1.451811581 -s 9 -d 2 -p ack -e 60 -c 2 -a 0 -i 47 -k RTR
+ -t 1.454057581 -s 2 -d 0 -p ack -e 60 -c 2 -a 0 -i 46 -k RTR 
- -t 1.454057581 -s 2 -d 0 -p ack -e 60 -c 2 -a 0 -i 46 -k RTR
h -t 1.454057581 -s 2 -d 0 -p ack -e 60 -c 2 -a 0 -i 46 -k RTR
r -t 1.456223581 -s 0 -d 0 -p ack -e 40 -c 2 -a 0 -i 46 -k AGT
+ -t 1.456223581 -s 0 -d -1 -p tcp -e 1040 -c 2 -a 0 -i 48 -k AGT 
- -t 1.456223581 -s 0 -d -1 -p tcp -e 1040 -c 2 -a 0 -i 48 -k AGT
h -t 1.456223581 -s 0 -d -1 -p tcp -e 1040 -c 2 -a 0 -i 48 -k AGT
+ -t 1.456223581 -s 0 -d -1 -p tcp -e 1040 -c 2 -a 0 -i 49 -k AGT 
- -t 1.456223581 -s 0 -d -1 -p tcp -e 1040 -c 2 -a 0 -i 49 -k AGT
h -t 1.456223581 -s 0 -d -1 -p tcp -e 1040 -c 2 -a 0 -i 49 -k AGT
+ -t 1.456223581 -s 0 -d 6 -p tcp -e 1060 -c 2 -a 0 -i 48 -k RTR 
- -t 1.456223581 -s 0 -d 6 -p tcp -e 1060 -c 2 -a 0 -i 48 -k RTR
h -t 1.456223581 -s 0 -d 6 -p tcp -e 1060 -c 2 -a 0 -i 48 -k RTR
+ -t 1.456223581 -s 0 -d 6 -p tcp -e 1060 -c 2 -a 0 -i 49 -k RTR 
- -t 1.456223581 -s 0 -d 6 -p tcp -e 1060 -c 2 -a 0 -i 49 -k RTR
h -t 1.456223581 -s 0 -d 6 -p tcp -e 1060 -c 2 -a 0 -i 49 -k RTR
+ -t 1.466269817 -s 6 -d 9 -p tcp -e 1060 -c 2 -a 0 -i 31 -k RTR 
- -t 1.466269817 -s 6 -d 9 -p tcp -e 1060 -c 2 -a 0 -i 31 -k RTR
h -t 1.466269817 -s 6 -d 9 -p tcp -e 1060 -c 2 -a 0 -i 31 -k RTR
r -t 1.476614817 -s 9 -d 9 -p tcp -e 1040 -c 2 -a 0 -i 31 -k AGT
+ -t 1.476614817 -s 9 -d -1 -p ack -e 40 -c 2 -a 0 -i 50 -k AGT 
- -t 1.476614817 -s 9 -d -1 -p ack -e 40 -c 2 -a 0 -i 50 -k AGT
h -t 1.476614817 -s 9 -d -1 -p ack -e 40 -c 2 -a 0 -i 50 -k AGT
+ -t 1.476614817 -s 9 -d 2 -p ack -e 60 -c 2 -a 0 -i 50 -k RTR 
- -t 1.476614817 -s 9 -d 2 -p ack -e 60 -c 2 -a 0 -i 50 -k RTR
h -t 1.476614817 -s 9 -d 2 -p ack -e 60 -c 2 -a 0 -i 50 -k RTR
+ -t 1.478680817 -s 2 -d 0 -p ack -e 60 -c 2 -a 0 -i 47 -k RTR 
- -t 1.478680817 -s 2 -d 0 -p ack -e 60 -c 2 -a 0 -i 47 -k RTR
h -t 1.478680817 -s 2 -d 0 -p ack -e 60 -c 2 -a 0 -i 47 -k RTR
r -t 1.480746817 -s 0 -d 0 -p ack -e 40 -c 2 -a 0 -i 47 -k AGT
+ -t 1.480746817 -s 0 -d -1 -p tcp -e 1040 -c 2 -a 0 -i 51 -k AGT 
- -t 1.480746817 -s 0 -d -1 -p tcp -e 1040 -c 2 -a 0 -i 51 -k AGT
h -t 1.480746817 -s 0 -d -1 -p tcp -e 1040 -c 2 -a 0 -i 51 -k AGT
+ -t 1.480746817 -s 0 -d -1 -p tcp -e 1040 -c 2 -a 0 -i 52 -k AGT 
- -t 1.480746817 -s 0 -d -1 -p tcp -e 1040 -c 2 -a 0 -i 52 -k AGT
h -t 1.480746817 -s 0 -d -1 -p tcp -e 1040 -c 2 -a 0 -i 52 -k AGT
+ -t 1.480746817 -s 0 -d 6 -p tcp -e 1060 -c 2 -a 0 -i 51 -k RTR 
- -t 1.480746817 -s 0 -d 6 -p tcp -e 1060 -c 2 -a 0 -i 51 -k RTR
h -t 1.480746817 -s 0 -d 6 -p tcp -e 1060 -c 2 -a 0 -i 51 -k RTR
+ -t 1.480746817 -s 0 -d 6 -p tcp -e 1060 -c 2 -a 0 -i 52 -k RTR 
- -t 1.480746817 -s 0 -d 6 -p tcp -e 1060 -c 2 -a 0 -i 52 -k RTR
h -t 1.480746817 -s 0 -d 6 -p tcp -e 1060 -c 2 -a 0 -i 52 -k RTR