Sconfig 0.00000 tap: on snoop: rts? on errs? on
Sconfig 0.00000 salvage: on !bd replies? on
Sconfig 0.00000 grat error: on grat reply: on
Sconfig 0.00000 $reply for props: on ring 0 search: on
Sconfig 0.00000 using MOBICACHE
s 1.000000000 _0_ AGT  --- 0 tcp 40 [0 0 0 0] ------- [0:0 9:0 32 0] [0 0] 0 0
r 1.000000000 _0_ RTR  --- 0 tcp 40 [0 0 0 0] ------- [0:0 9:0 32 0] [0 0] 0 0
s 1.003752324 _0_ RTR  --- 1 DSR 32 [0 0 0 0] ------- [0:255 9:255 32 0] 1 [1 1] [0 1 0 0->0] [0 0 0 0->0]
r 1.005052657 _1_ RTR  --- 1 DSR 32 [0 ffffffff 0 800] ------- [0:255 9:255 32 0] 1 [1 1] [0 1 0 0->0] [0 0 0 0->0]
r 1.005052657 _4_ RTR  --- 1 DSR 32 [0 ffffffff 0 800] ------- [0:255 9:255 32 0] 1 [1 1] [0 1 0 0->0] [0 0 0 0->0]
r 1.005052795 _5_ RTR  --- 1 DSR 32 [0 ffffffff 0 800] ------- [0:255 9:255 32 0] 1 [1 1] [0 1 0 0->0] [0 0 0 0->0]
r 1.005052991 _2_ RTR  --- 1 DSR 32 [0 ffffffff 0 800] ------- [0:255 9:255 32 0] 1 [1 1] [0 1 0 0->0] [0 0 0 0->0]
r 1.005053069 _6_ RTR  --- 1 DSR 32 [0 ffffffff 0 800] ------- [0:255 9:255 32 0] 1 [1 1] [0 1 0 0->0] [0 0 0 0->0]
r 1.005053069 _8_ RTR  --- 1 DSR 32 [0 ffffffff 0 800] ------- [0:255 9:255 32 0] 1 [1 1] [0 1 0 0->0] [0 0 0 0->0]
s 1.058219887 _0_ RTR  --- 3 DSR 32 [0 0 0 0] ------- [0:255 9:255 32 0] 1 [1 2] [0 2 0 0->0] [0 0 0 0->0]
r 1.059580220 _1_ RTR  --- 3 DSR 32 [0 ffffffff 0 800] ------- [0:255 9:255 32 0] 1 [1 2] [0 2 0 0->0] [0 0 0 0->0]
r 1.059580220 _4_ RTR  --- 3 DSR 32 [0 ffffffff 0 800] ------- [0:255 9:255 32 0] 1 [1 2] [0 2 0 0->0] [0 0 0 0->0]
r 1.059580358 _5_ RTR  --- 3 DSR 32 [0 ffffffff 0 800] ------- [0:255 9:255 32 0] 1 [1 2] [0 2 0 0->0] [0 0 0 0->0]
r 1.059580554 _2_ RTR  --- 3 DSR 32 [0 ffffffff 0 800] ------- [0:255 9:255 32 0] 1 [1 2] [0 2 0 0->0] [0 0 0 0->0]
r 1.059580632 _6_ RTR  --- 3 DSR 32 [0 ffffffff 0 800] ------- [0:255 9:255 32 0] 1 [1 2] [0 2 0 0->0] [0 0 0 0->0]
r 1.059580632 _8_ RTR  --- 3 DSR 32 [0 ffffffff 0 800] ------- [0:255 9:255 32 0] 1 [1 2] [0 2 0 0->0] [0 0 0 0->0]
f 1.062870588 _2_ RTR  --- 3 DSR 48 [0 ffffffff 0 800] ------- [0:255 9:255 32 0] 2 [1 2] [0 2 0 0->0] [0 0 0 0->0]
r 1.064298921 _1_ RTR  --- 3 DSR 48 [0 ffffffff 2 800] ------- [0:255 9:255 32 0] 2 [1 2] [0 2 0 0->0] [0 0 0 0->0]
r 1.064298921 _3_ RTR  --- 3 DSR 48 [0 ffffffff 2 800] ------- [0:255 9:255 32 0] 2 [1 2] [0 2 0 0->0] [0 0 0 0->0]
r 1.064298921 _6_ RTR  --- 3 DSR 48 [0 ffffffff 2 800] ------- [0:255 9:255 32 0] 2 [1 2] [0 2 0 0->0] [0 0 0 0->0]
r 1.064299059 _5_ RTR  --- 3 DSR 48 [0 ffffffff 2 800] ------- [0:255 9:255 32 0] 2 [1 2] [0 2 0 0->0] [0 0 0 0->0]
r 1.064299059 _7_ RTR  --- 3 DSR 48 [0 ffffffff 2 800] ------- [0:255 9:255 32 0] 2 [1 2] [0 2 0 0->0] [0 0 0 0->0]
r 1.064299254 _0_ RTR  --- 3 DSR 48 [0 ffffffff 2 800] ------- [0:255 9:255 32 0] 2 [1 2] [0 2 0 0->0] [0 0 0 0->0]
r 1.064299254 _9_ RTR  --- 3 DSR 48 [0 ffffffff 2 800] ------- [0:255 9:255 32 0] 2 [1 2] [0 2 0 0->0] [0 0 0 0->0]
r 1.064299333 _4_ RTR  --- 3 DSR 48 [0 ffffffff 2 800] ------- [0:255 9:255 32 0] 2 [1 2] [0 2 0 0->0] [0 0 0 0->0]
r 1.064299333 _8_ RTR  --- 3 DSR 48 [0 ffffffff 2 800] ------- [0:255 9:255 32 0] 2 [1 2] [0 2 0 0->0] [0 0 0 0->0]
f 1.064690243 _6_ RTR  --- 3 DSR 48 [0 ffffffff 0 800] ------- [0:255 9:255 32 0] 2 [1 2] [0 2 0 0->0] [0 0 0 0->0]
r 1.065778576 _5_ RTR  --- 3 DSR 48 [0 ffffffff 6 800] ------- [0:255 9:255 32 0] 2 [1 2] [0 2 0 0->0] [0 0 0 0->0]
r 1.065778576 _2_ RTR  --- 3 DSR 48 [0 ffffffff 6 800] ------- [0:255 9:255 32 0] 2 [1 2] [0 2 0 0->0] [0 0 0 0->0]
r 1.065778576 _7_ RTR  --- 3 DSR 48 [0 ffffffff 6 800] ------- [0:255 9:255 32 0] 2 [1 2] [0 2 0 0->0] [0 0 0 0->0]
r 1.065778576 _9_ RTR  --- 3 DSR 48 [0 ffffffff 6 800] ------- [0:255 9:255 32 0] 2 [1 2] [0 2 0 0->0] [0 0 0 0->0]
r 1.065778714 _3_ RTR  --- 3 DSR 48 [0 ffffffff 6 800] ------- [0:255 9:255 32 0] 2 [1 2] [0 2 0 0->0] [0 0 0 0->0]
r 1.065778714 _1_ RTR  --- 3 DSR 48 [0 ffffffff 6 800] ------- [0:255 9:255 32 0] 2 [1 2] [0 2 0 0->0] [0 0 0 0->0]
r 1.065778714 _8_ RTR  --- 3 DSR 48 [0 ffffffff 6 800] ------- [0:255 9:255 32 0] 2 [1 2] [0 2 0 0->0] [0 0 0 0->0]
r 1.065778910 _4_ RTR  --- 3 DSR 48 [0 ffffffff 6 800] ------- [0:255 9:255 32 0] 2 [1 2] [0 2 0 0->0] [0 0 0 0->0]
r 1.065778988 _0_ RTR  --- 3 DSR 48 [0 ffffffff 6 800] ------- [0:255 9:255 32 0] 2 [1 2] [0 2 0 0->0] [0 0 0 0->0]
s 1.066125962 _9_ RTR  --- 5 DSR 52 [0 0 0 0] ------- [9:255 0:255 254 6] 3 [0 2] [1 2 3 0->9] [0 0 0 0->0]
f 1.066984700 _3_ RTR  --- 3 DSR 68 [0 ffffffff 2 800] ------- [0:255 9:255 32 0] 3 [1 2] [0 2 0 0->0] [0 0 0 0->0]
f 1.067267487 _8_ RTR  --- 3 DSR 48 [0 ffffffff 0 800] ------- [0:255 9:255 32 0] 2 [1 2] [0 2 0 0->0] [0 0 0 0->0]
f 1.067706183 _7_ RTR  --- 3 DSR 68 [0 ffffffff 2 800] ------- [0:255 9:255 32 0] 3 [1 2] [0 2 0 0->0] [0 0 0 0->0]
f 1.068186827 _1_ RTR  --- 3 DSR 48 [0 ffffffff 0 800] ------- [0:255 9:255 32 0] 2 [1 2] [0 2 0 0->0] [0 0 0 0->0]
f 1.068607846 _5_ RTR  --- 3 DSR 48 [0 ffffffff 0 800] ------- [0:255 9:255 32 0] 2 [1 2] [0 2 0 0->0] [0 0 0 0->0]
f 1.068736396 _4_ RTR  --- 3 DSR 48 [0 ffffffff 0 800] ------- [0:255 9:255 32 0] 2 [1 2] [0 2 0 0->0] [0 0 0 0->0]
s 1.068762142 _9_ RTR  --- 4 DSR 52 [0 0 0 0] ------- [9:255 0:255 254 2] 3 [0 2] [1 2 3 0->9] [0 0 0 0->0]
r 1.070387374 _2_ RTR  --- 3 DSR 68 [0 ffffffff 3 800] ------- [0:255 9:255 32 0] 3 [1 2] [0 2 0 0->0] [0 0 0 0->0]
r 1.070387374 _7_ RTR  --- 3 DSR 68 [0 ffffffff 3 800] ------- [0:255 9:255 32 0] 3 [1 2] [0 2 0 0->0] [0 0 0 0->0]
r 1.070387512 _6_ RTR  --- 3 DSR 68 [0 ffffffff 3 800] ------- [0:255 9:255 32 0] 3 [1 2] [0 2 0 0->0] [0 0 0 0->0]
r 1.070387707 _1_ RTR  --- 3 DSR 68 [0 ffffffff 3 800] ------- [0:255 9:255 32 0] 3 [1 2] [0 2 0 0->0] [0 0 0 0->0]
r 1.070387786 _5_ RTR  --- 3 DSR 68 [0 ffffffff 3 800] ------- [0:255 9:255 32 0] 3 [1 2] [0 2 0 0->0] [0 0 0 0->0]
r 1.070387786 _9_ RTR  --- 3 DSR 68 [0 ffffffff 3 800] ------- [0:255 9:255 32 0] 3 [1 2] [0 2 0 0->0] [0 0 0 0->0]
r 1.071525707 _6_ RTR  --- 3 DSR 68 [0 ffffffff 7 800] ------- [0:255 9:255 32 0] 3 [1 2] [0 2 0 0->0] [0 0 0 0->0]
r 1.071525707 _3_ RTR  --- 3 DSR 68 [0 ffffffff 7 800] ------- [0:255 9:255 32 0] 3 [1 2] [0 2 0 0->0] [0 0 0 0->0]
r 1.071525846 _2_ RTR  --- 3 DSR 68 [0 ffffffff 7 800] ------- [0:255 9:255 32 0] 3 [1 2] [0 2 0 0->0] [0 0 0 0->0]
r 1.071525846 _9_ RTR  --- 3 DSR 68 [0 ffffffff 7 800] ------- [0:255 9:255 32 0] 3 [1 2] [0 2 0 0->0] [0 0 0 0->0]
r 1.071526041 _5_ RTR  --- 3 DSR 68 [0 ffffffff 7 800] ------- [0:255 9:255 32 0] 3 [1 2] [0 2 0 0->0] [0 0 0 0->0]
r 1.071526120 _1_ RTR  --- 3 DSR 68 [0 ffffffff 7 800] ------- [0:255 9:255 32 0] 3 [1 2] [0 2 0 0->0] [0 0 0 0->0]
r 1.071526120 _8_ RTR  --- 3 DSR 68 [0 ffffffff 7 800] ------- [0:255 9:255 32 0] 3 [1 2] [0 2 0 0->0] [0 0 0 0->0]
s 1.071678030 _9_ RTR  --- 6 DSR 60 [0 0 0 0] ------- [9:255 0:255 254 3] 4 [0 2] [1 2 4 0->9] [0 0 0 0->0]
r 1.072504374 _4_ RTR  --- 3 DSR 48 [0 ffffffff 5 800] ------- [0:255 9:255 32 0] 2 [1 2] [0 2 0 0->0] [0 0 0 0->0]
r 1.072504374 _1_ RTR  --- 3 DSR 48 [0 ffffffff 5 800] ------- [0:255 9:255 32 0] 2 [1 2] [0 2 0 0->0] [0 0 0 0->0]
r 1.072504374 _6_ RTR  --- 3 DSR 48 [0 ffffffff 5 800] ------- [0:255 9:255 32 0] 2 [1 2] [0 2 0 0->0] [0 0 0 0->0]
r 1.072504374 _8_ RTR  --- 3 DSR 48 [0 ffffffff 5 800] ------- [0:255 9:255 32 0] 2 [1 2] [0 2 0 0->0] [0 0 0 0->0]
r 1.072504512 _2_ RTR  --- 3 DSR 48 [0 ffffffff 5 800] ------- [0:255 9:255 32 0] 2 [1 2] [0 2 0 0->0] [0 0 0 0->0]
r 1.072504512 _0_ RTR  --- 3 DSR 48 [0 ffffffff 5 800] ------- [0:255 9:255 32 0] 2 [1 2] [0 2 0 0->0] [0 0 0 0->0]
r 1.072504512 _9_ RTR  --- 3 DSR 48 [0 ffffffff 5 800] ------- [0:255 9:255 32 0] 2 [1 2] [0 2 0 0->0] [0 0 0 0->0]
r 1.072504707 _7_ RTR  --- 3 DSR 48 [0 ffffffff 5 800] ------- [0:255 9:255 32 0] 2 [1 2] [0 2 0 0->0] [0 0 0 0->0]
r 1.072504786 _3_ RTR  --- 3 DSR 48 [0 ffffffff 5 800] ------- [0:255 9:255 32 0] 2 [1 2] [0 2 0 0->0] [0 0 0 0->0]
r 1.073422707 _5_ RTR  --- 3 DSR 48 [0 ffffffff 8 800] ------- [0:255 9:255 32 0] 2 [1 2] [0 2 0 0->0] [0 0 0 0->0]
r 1.073422707 _9_ RTR  --- 3 DSR 48 [0 ffffffff 8 800] ------- [0:255 9:255 32 0] 2 [1 2] [0 2 0 0->0] [0 0 0 0->0]
r 1.073422846 _6_ RTR  --- 3 DSR 48 [0 ffffffff 8 800] ------- [0:255 9:255 32 0] 2 [1 2] [0 2 0 0->0] [0 0 0 0->0]
r 1.073422846 _4_ RTR  --- 3 DSR 48 [0 ffffffff 8 800] ------- [0:255 9:255 32 0] 2 [1 2] [0 2 0 0->0] [0 0 0 0->0]
r 1.073423041 _1_ RTR  --- 3 DSR 48 [0 ffffffff 8 800] ------- [0:255 9:255 32 0] 2 [1 2] [0 2 0 0->0] [0 0 0 0->0]
r 1.073423120 _7_ RTR  --- 3 DSR 48 [0 ffffffff 8 800] ------- [0:255 9:255 32 0] 2 [1 2] [0 2 0 0->0] [0 0 0 0->0]
r 1.073423120 _2_ RTR  --- 3 DSR 48 [0 ffffffff 8 800] ------- [0:255 9:255 32 0] 2 [1 2] [0 2 0 0->0] [0 0 0 0->0]
r 1.073423120 _0_ RTR  --- 3 DSR 48 [0 ffffffff 8 800] ------- [0:255 9:255 32 0] 2 [1 2] [0 2 0 0->0] [0 0 0 0->0]
s 1.074273195 _9_ RTR  --- 9 DSR 52 [0 0 0 0] ------- [9:255 0:255 254 8] 3 [0 2] [1 2 3 0->9] [0 0 0 0->0]
r 1.074341374 _2_ RTR  --- 3 DSR 48 [0 ffffffff 1 800] ------- [0:255 9:255 32 0] 2 [1 2] [0 2 0 0->0] [0 0 0 0->0]
s 1.076226951 _9_ RTR  --- 8 DSR 52 [0 0 0 0] ------- [9:255 0:255 254 5] 3 [0 2] [1 2 3 0->9] [0 0 0 0->0]
s 1.077335310 _9_ RTR  --- 7 DSR 60 [0 0 0 0] ------- [9:255 0:255 254 7] 4 [0 2] [1 2 4 0->9] [0 0 0 0->0]
r 1.079386453 _6_ RTR  --- 5 DSR 52 [13a 6 9 800] ------- [9:255 0:255 254 6] 3 [0 2] [1 2 3 0->9] [0 0 0 0->0]
f 1.079386453 _6_ RTR  --- 5 DSR 52 [13a 6 9 800] ------- [9:255 0:255 253 0] 3 [0 2] [1 2 3 0->9] [0 0 0 0->0]
r 1.081728786 _2_ RTR  --- 4 DSR 52 [13a 2 9 800] ------- [9:255 0:255 254 2] 3 [0 2] [1 2 3 0->9] [0 0 0 0->0]
f 1.081728786 _2_ RTR  --- 4 DSR 52 [13a 2 9 800] ------- [9:255 0:255 253 0] 3 [0 2] [1 2 3 0->9] [0 0 0 0->0]
r 1.086345337 _0_ RTR  --- 5 DSR 52 [13a 0 6 800] ------- [9:255 0:255 253 0] 3 [0 2] [1 2 3 0->9] [0 0 0 0->0]
SFESTs 1.086345337 _0_ 0 [0 -> 9] 1(1) to 6 [0 |6 9 ]
s 1.086345337 _0_ RTR  --- 0 tcp 80 [0 0 0 0] ------- [0:0 9:0 32 6] [0 0] 0 0
r 1.097775852 _6_ RTR  --- 0 tcp 80 [13a 6 0 800] ------- [0:0 9:0 32 6] [0 0] 1 0
f 1.097775852 _6_ RTR  --- 0 tcp 80 [13a 6 0 800] ------- [0:0 9:0 31 9] [0 0] 1 0
r 1.099832286 _3_ RTR  --- 6 DSR 60 [13a 3 9 800] ------- [9:255 0:255 254 3] 4 [0 2] [1 2 4 0->9] [0 0 0 0->0]
f 1.099832286 _3_ RTR  --- 6 DSR 60 [13a 3 9 800] ------- [9:255 0:255 253 2] 4 [0 2] [1 2 4 0->9] [0 0 0 0->0]
r 1.101957286 _2_ RTR  --- 6 DSR 60 [13a 2 3 800] ------- [9:255 0:255 253 2] 4 [0 2] [1 2 4 0->9] [0 0 0 0->0]
f 1.101957286 _2_ RTR  --- 6 DSR 60 [13a 2 3 800] ------- [9:255 0:255 252 0] 4 [0 2] [1 2 4 0->9] [0 0 0 0->0]
D 1.101957286 _2_ IFQ  ARP 4 DSR 52 [13a 2 2 800] ------- [9:255 0:255 253 0] 3 [0 2] [1 2 3 0->9] [0 0 0 0->0]
r 1.104063367 _7_ RTR  --- 7 DSR 60 [13a 7 9 800] ------- [9:255 0:255 254 7] 4 [0 2] [1 2 4 0->9] [0 0 0 0->0]
f 1.104063367 _7_ RTR  --- 7 DSR 60 [13a 7 9 800] ------- [9:255 0:255 253 2] 4 [0 2] [1 2 4 0->9] [0 0 0 0->0]
r 1.106488700 _9_ RTR  --- 0 tcp 80 [13a 9 6 800] ------- [0:0 9:0 31 9] [0 0] 2 0
r 1.106488700 _9_ AGT  --- 0 tcp 40 [13a 9 6 800] ------- [0:0 9:0 31 9] [0 0] 2 0
s 1.106488700 _9_ AGT  --- 10 ack 40 [0 0 0 0] ------- [9:0 0:0 32 0] [0 0] 0 0
r 1.106488700 _9_ RTR  --- 10 ack 40 [0 0 0 0] ------- [9:0 0:0 32 0] [0 0] 0 0
SFESTs 1.106488700 _9_ 10 [9 -> 0] 1(1) to 2 [9 |2 0 ]
s 1.106488700 _9_ RTR  --- 10 ack 80 [0 0 0 0] ------- [9:0 0:0 32 2] [0 0] 0 0
r 1.109313252 _2_ RTR  --- 7 DSR 60 [13a 2 7 800] ------- [9:255 0:255 253 2] 4 [0 2] [1 2 4 0->9] [0 0 0 0->0]
f 1.109313252 _2_ RTR  --- 7 DSR 60 [13a 2 7 800] ------- [9:255 0:255 252 0] 4 [0 2] [1 2 4 0->9] [0 0 0 0->0]
D 1.109313252 _2_ IFQ  ARP 6 DSR 60 [13a 2 2 800] ------- [9:255 0:255 252 0] 4 [0 2] [1 2 4 0->9] [0 0 0 0->0]
r 1.117119466 _2_ RTR  --- 10 ack 80 [13a 2 9 800] ------- [9:0 0:0 32 2] [0 0] 1 0
f 1.117119466 _2_ RTR  --- 10 ack 80 [13a 2 9 800] ------- [9:0 0:0 31 0] [0 0] 1 0
r 1.119081547 _5_ RTR  --- 8 DSR 52 [13a 5 9 800] ------- [9:255 0:255 254 5] 3 [0 2] [1 2 3 0->9] [0 0 0 0->0]
f 1.119081547 _5_ RTR  --- 8 DSR 52 [13a 5 9 800] ------- [9:255 0:255 253 0] 3 [0 2] [1 2 3 0->9] [0 0 0 0->0]
r 1.124595628 _0_ RTR  --- 7 DSR 60 [13a 0 2 800] ------- [9:255 0:255 252 0] 4 [0 2] [1 2 4 0->9] [0 0 0 0->0]
r 1.126822294 _0_ RTR  --- 10 ack 80 [13a 0 2 800] ------- [9:0 0:0 31 0] [0 0] 2 0
r 1.126822294 _0_ AGT  --- 10 ack 40 [13a 0 2 800] ------- [9:0 0:0 31 0] [0 0] 2 0
s 1.126822294 _0_ AGT  --- 11 tcp 1040 [0 0 0 0] ------- [0:0 9:0 32 0] [1 0] 0 0
r 1.126822294 _0_ RTR  --- 11 tcp 1040 [0 0 0 0] ------- [0:0 9:0 32 0] [1 0] 0 0
SFESTs 1.126822294 _0_ 11 [0 -> 9] 1(1) to 6 [0 |6 9 ]
s 1.126822294 _0_ AGT  --- 12 tcp 1040 [0 0 0 0] ------- [0:0 9:0 32 0] [2 0] 0 0
r 1.126822294 _0_ RTR  --- 12 tcp 1040 [0 0 0 0] ------- [0:0 9:0 32 0] [2 0] 0 0
SFESTs 1.126822294 _0_ 12 [0 -> 9] 1(1) to 6 [0 |6 9 ]
s 1.126822294 _0_ RTR  --- 11 tcp 1080 [0 0 0 0] ------- [0:0 9:0 32 6] [1 0] 0 0
s 1.126822294 _0_ RTR  --- 12 tcp 1080 [0 0 0 0] ------- [0:0 9:0 32 6] [2 0] 0 0
r 1.132473847 _8_ RTR  --- 9 DSR 52 [13a 8 9 800] ------- [9:255 0:255 254 8] 3 [0 2] [1 2 3 0->9] [0 0 0 0->0]
f 1.132473847 _8_ RTR  --- 9 DSR 52 [13a 8 9 800] ------- [9:255 0:255 253 0] 3 [0 2] [1 2 3 0->9] [0 0 0 0->0]
r 1.142890692 _6_ RTR  --- 11 tcp 1080 [13a 6 0 800] ------- [0:0 9:0 32 6] [1 0] 1 0
f 1.142890692 _6_ RTR  --- 11 tcp 1080 [13a 6 0 800] ------- [0:0 9:0 31 9] [1 0] 1 0
r 1.144832440 _0_ RTR  --- 8 DSR 52 [13a 0 5 800] ------- [9:255 0:255 253 0] 3 [0 2] [1 2 3 0->9] [0 0 0 0->0]
r 1.155198676 _6_ RTR  --- 12 tcp 1080 [13a 6 0 800] ------- [0:0 9:0 32 6] [2 0] 1 0
f 1.155198676 _6_ RTR  --- 12 tcp 1080 [13a 6 0 800] ------- [0:0 9:0 31 9] [2 0] 1 0
r 1.165403676 _9_ RTR  --- 11 tcp 1080 [13a 9 6 800] ------- [0:0 9:0 31 9] [1 0] 2 0
r 1.165403676 _9_ AGT  --- 11 tcp 1040 [13a 9 6 800] ------- [0:0 9:0 31 9] [1 0] 2 0
s 1.165403676 _9_ AGT  --- 13 ack 40 [0 0 0 0] ------- [9:0 0:0 32 0] [1 0] 0 0
r 1.165403676 _9_ RTR  --- 13 ack 40 [0 0 0 0] ------- [9:0 0:0 32 0] [1 0] 0 0
SFESTs 1.165403676 _9_ 13 [9 -> 0] 1(1) to 2 [9 |2 0 ]
s 1.165403676 _9_ RTR  --- 13 ack 80 [0 0 0 0] ------- [9:0 0:0 32 2] [1 0] 0 0
r 1.168588342 _2_ RTR  --- 13 ack 80 [13a 2 9 800] ------- [9:0 0:0 32 2] [1 0] 1 0
f 1.168588342 _2_ RTR  --- 13 ack 80 [13a 2 9 800] ------- [9:0 0:0 31 0] [1 0] 1 0
r 1.180774326 _9_ RTR  --- 12 tcp 1080 [13a 9 6 800] ------- [0:0 9:0 31 9] [2 0] 2 0
r 1.180774326 _9_ AGT  --- 12 tcp 1040 [13a 9 6 800] ------- [0:0 9:0 31 9] [2 0] 2 0
s 1.180774326 _9_ AGT  --- 14 ack 40 [0 0 0 0] ------- [9:0 0:0 32 0] [2 0] 0 0
r 1.180774326 _9_ RTR  --- 14 ack 40 [0 0 0 0] ------- [9:0 0:0 32 0] [2 0] 0 0
SFESTs 1.180774326 _9_ 14 [9 -> 0] 1(1) to 2 [9 |2 0 ]
s 1.180774326 _9_ RTR  --- 14 ack 80 [0 0 0 0] ------- [9:0 0:0 32 2] [2 0] 0 0
r 1.182716895 _0_ RTR  --- 9 DSR 52 [13a 0 8 800] ------- [9:255 0:255 253 0] 3 [0 2] [1 2 3 0->9] [0 0 0 0->0]
r 1.184963562 _0_ RTR  --- 13 ack 80 [13a 0 2 800] ------- [9:0 0:0 31 0] [1 0] 2 0
r 1.184963562 _0_ AGT  --- 13 ack 40 [13a 0 2 800] ------- [9:0 0:0 31 0] [1 0] 2 0
s 1.184963562 _0_ AGT  --- 15 tcp 1040 [0 0 0 0] ------- [0:0 9:0 32 0] [3 0] 0 0
r 1.184963562 _0_ RTR  --- 15 tcp 1040 [0 0 0 0] ------- [0:0 9:0 32 0] [3 0] 0 0
SFs 1.184963562 _0_ 15 [0 -> 9] 1(0) to 6 
s 1.184963562 _0_ AGT  --- 16 tcp 1040 [0 0 0 0] ------- [0:0 9:0 32 0] [4 0] 0 0
r 1.184963562 _0_ RTR  --- 16 tcp 1040 [0 0 0 0] ------- [0:0 9:0 32 0] [4 0] 0 0
SFs 1.184963562 _0_ 16 [0 -> 9] 1(0) to 6 
s 1.184963562 _0_ RTR  --- 15 tcp 1060 [0 0 0 0] ------- [0:0 9:0 32 6] [3 0] 0 0
s 1.184963562 _0_ RTR  --- 16 tcp 1060 [0 0 0 0] ------- [0:0 9:0 32 6] [4 0] 0 0
r 1.194989798 _6_ RTR  --- 15 tcp 1060 [13a 6 0 800] ------- [0:0 9:0 32 6] [3 0] 1 0
SFf 1.194989798 _6_ 15 [0 -> 9] 1 to 9
f 1.194989798 _6_ RTR  --- 15 tcp 1060 [13a 6 0 800] ------- [0:0 9:0 31 9] [3 0] 1 0
r 1.205034798 _9_ RTR  --- 15 tcp 1060 [13a 9 6 800] ------- [0:0 9:0 31 9] [3 0] 2 0
r 1.205034798 _9_ AGT  --- 15 tcp 1040 [13a 9 6 800] ------- [0:0 9:0 31 9] [3 0] 2 0
s 1.205034798 _9_ AGT  --- 17 ack 40 [0 0 0 0] ------- [9:0 0:0 32 0] [3 0] 0 0
r 1.205034798 _9_ RTR  --- 17 ack 40 [0 0 0 0] ------- [9:0 0:0 32 0] [3 0] 0 0
SFs 1.205034798 _9_ 17 [9 -> 0] 1(0) to 2 
s 1.205034798 _9_ RTR  --- 17 ack 60 [0 0 0 0] ------- [9:0 0:0 32 2] [3 0] 0 0
r 1.207340798 _2_ RTR  --- 14 ack 80 [13a 2 9 800] ------- [9:0 0:0 32 2] [2 0] 1 0
f 1.207340798 _2_ RTR  --- 14 ack 80 [13a 2 9 800] ------- [9:0 0:0 31 0] [2 0] 1 0
r 1.209546798 _0_ RTR  --- 14 ack 80 [13a 0 2 800] ------- [9:0 0:0 31 0] [2 0] 2 0
r 1.209546798 _0_ AGT  --- 14 ack 40 [13a 0 2 800] ------- [9:0 0:0 31 0] [2 0] 2 0
s 1.209546798 _0_ AGT  --- 18 tcp 1040 [0 0 0 0] ------- [0:0 9:0 32 0] [5 0] 0 0
r 1.209546798 _0_ RTR  --- 18 tcp 1040 [0 0 0 0] ------- [0:0 9:0 32 0] [5 0] 0 0
SFs 1.209546798 _0_ 18 [0 -> 9] 1(0) to 6 
s 1.209546798 _0_ AGT  --- 19 tcp 1040 [0 0 0 0] ------- [0:0 9:0 32 0] [6 0] 0 0
r 1.209546798 _0_ RTR  --- 19 tcp 1040 [0 0 0 0] ------- [0:0 9:0 32 0] [6 0] 0 0
SFs 1.209546798 _0_ 19 [0 -> 9] 1(0) to 6 
s 1.209546798 _0_ RTR  --- 18 tcp 1060 [0 0 0 0] ------- [0:0 9:0 32 6] [5 0] 0 0
s 1.209546798 _0_ RTR  --- 19 tcp 1060 [0 0 0 0] ------- [0:0 9:0 32 6] [6 0] 0 0
r 1.219933034 _6_ RTR  --- 16 tcp 1060 [13a 6 0 800] ------- [0:0 9:0 32 6] [4 0] 1 0
SFf 1.219933034 _6_ 16 [0 -> 9] 1 to 9
f 1.219933034 _6_ RTR  --- 16 tcp 1060 [13a 6 0 800] ------- [0:0 9:0 31 9] [4 0] 1 0
r 1.229940016 _6_ RTR  --- 18 tcp 1060 [13a 6 0 800] ------- [0:0 9:0 32 6] [5 0] 1 0
SFf 1.229940016 _6_ 18 [0 -> 9] 1 to 9
f 1.229940016 _6_ RTR  --- 18 tcp 1060 [13a 6 0 800] ------- [0:0 9:0 31 9] [5 0] 1 0
r 1.232156213 _2_ RTR  --- 17 ack 60 [13a 2 9 800] ------- [9:0 0:0 32 2] [3 0] 1 0
SFf 1.232156213 _2_ 17 [9 -> 0] 1 to 0
f 1.232156213 _2_ RTR  --- 17 ack 60 [13a 2 9 800] ------- [9:0 0:0 31 0] [3 0] 1 0
r 1.242301546 _9_ RTR  --- 16 tcp 1060 [13a 9 6 800] ------- [0:0 9:0 31 9] [4 0] 2 0
r 1.242301546 _9_ AGT  --- 16 tcp 1040 [13a 9 6 800] ------- [0:0 9:0 31 9] [4 0] 2 0
s 1.242301546 _9_ AGT  --- 20 ack 40 [0 0 0 0] ------- [9:0 0:0 32 0] [4 0] 0 0
r 1.242301546 _9_ RTR  --- 20 ack 40 [0 0 0 0] ------- [9:0 0:0 32 0] [4 0] 0 0
SFs 1.242301546 _9_ 20 [9 -> 0] 1(0) to 2 
s 1.242301546 _9_ RTR  --- 20 ack 60 [0 0 0 0] ------- [9:0 0:0 32 2] [4 0] 0 0
r 1.252286880 _9_ RTR  --- 18 tcp 1060 [13a 9 6 800] ------- [0:0 9:0 31 9] [5 0] 2 0
r 1.252286880 _9_ AGT  --- 18 tcp 1040 [13a 9 6 800] ------- [0:0 9:0 31 9] [5 0] 2 0
s 1.252286880 _9_ AGT  --- 21 ack 40 [0 0 0 0] ------- [9:0 0:0 32 0] [5 0] 0 0
r 1.252286880 _9_ RTR  --- 21 ack 40 [0 0 0 0] ------- [9:0 0:0 32 0] [5 0] 0 0
SFs 1.252286880 _9_ 21 [9 -> 0] 1(0) to 2 
s 1.252286880 _9_ RTR  --- 21 ack 60 [0 0 0 0] ------- [9:0 0:0 32 2] [5 0] 0 0
r 1.254472880 _2_ RTR  --- 20 ack 60 [13a 2 9 800] ------- [9:0 0:0 32 2] [4 0] 1 0
SFf 1.254472880 _2_ 20 [9 -> 0] 1 to 0
f 1.254472880 _2_ RTR  --- 20 ack 60 [13a 2 9 800] ------- [9:0 0:0 31 0] [4 0] 1 0
r 1.256558880 _0_ RTR  --- 17 ack 60 [13a 0 2 800] ------- [9:0 0:0 31 0] [3 0] 2 0
r 1.256558880 _0_ AGT  --- 17 ack 40 [13a 0 2 800] ------- [9:0 0:0 31 0] [3 0] 2 0
s 1.256558880 _0_ AGT  --- 22 tcp 1040 [0 0 0 0] ------- [0:0 9:0 32 0] [7 0] 0 0
r 1.256558880 _0_ RTR  --- 22 tcp 1040 [0 0 0 0] ------- [0:0 9:0 32 0] [7 0] 0 0
SFs 1.256558880 _0_ 22 [0 -> 9] 1(0) to 6 
s 1.256558880 _0_ AGT  --- 23 tcp 1040 [0 0 0 0] ------- [0:0 9:0 32 0] [8 0] 0 0
r 1.256558880 _0_ RTR  --- 23 tcp 1040 [0 0 0 0] ------- [0:0 9:0 32 0] [8 0] 0 0
SFs 1.256558880 _0_ 23 [0 -> 9] 1(0) to 6 
s 1.256558880 _0_ RTR  --- 22 tcp 1060 [0 0 0 0] ------- [0:0 9:0 32 6] [7 0] 0 0
s 1.256558880 _0_ RTR  --- 23 tcp 1060 [0 0 0 0] ------- [0:0 9:0 32 6] [8 0] 0 0
r 1.266665116 _6_ RTR  --- 19 tcp 1060 [13a 6 0 800] ------- [0:0 9:0 32 6] [6 0] 1 0
SFf 1.266665116 _6_ 19 [0 -> 9] 1 to 9
f 1.266665116 _6_ RTR  --- 19 tcp 1060 [13a 6 0 800] ------- [0:0 9:0 31 9] [6 0] 1 0
r 1.276732097 _6_ RTR  --- 22 tcp 1060 [13a 6 0 800] ------- [0:0 9:0 32 6] [7 0] 1 0
SFf 1.276732097 _6_ 22 [0 -> 9] 1 to 9
f 1.276732097 _6_ RTR  --- 22 tcp 1060 [13a 6 0 800] ------- [0:0 9:0 31 9] [7 0] 1 0
r 1.287964588 _9_ RTR  --- 19 tcp 1060 [13a 9 6 800] ------- [0:0 9:0 31 9] [6 0] 2 0
r 1.287964588 _9_ AGT  --- 19 tcp 1040 [13a 9 6 800] ------- [0:0 9:0 31 9] [6 0] 2 0
s 1.287964588 _9_ AGT  --- 24 ack 40 [0 0 0 0] ------- [9:0 0:0 32 0] [6 0] 0 0
r 1.287964588 _9_ RTR  --- 24 ack 40 [0 0 0 0] ------- [9:0 0:0 32 0] [6 0] 0 0
SFs 1.287964588 _9_ 24 [9 -> 0] 1(0) to 2 
s 1.287964588 _9_ RTR  --- 24 ack 60 [0 0 0 0] ------- [9:0 0:0 32 2] [6 0] 0 0
r 1.289970588 _2_ RTR  --- 21 ack 60 [13a 2 9 800] ------- [9:0 0:0 32 2] [5 0] 1 0
SFf 1.289970588 _2_ 21 [9 -> 0] 1 to 0
f 1.289970588 _2_ RTR  --- 21 ack 60 [13a 2 9 800] ------- [9:0 0:0 31 0] [5 0] 1 0
r 1.292096588 _0_ RTR  --- 20 ack 60 [13a 0 2 800] ------- [9:0 0:0 31 0] [4 0] 2 0
r 1.292096588 _0_ AGT  --- 20 ack 40 [13a 0 2 800] ------- [9:0 0:0 31 0] [4 0] 2 0
s 1.292096588 _0_ AGT  --- 25 tcp 1040 [0 0 0 0] ------- [0:0 9:0 32 0] [9 0] 0 0
r 1.292096588 _0_ RTR  --- 25 tcp 1040 [0 0 0 0] ------- [0:0 9:0 32 0] [9 0] 0 0
SFs 1.292096588 _0_ 25 [0 -> 9] 1(0) to 6 
s 1.292096588 _0_ AGT  --- 26 tcp 1040 [0 0 0 0] ------- [0:0 9:0 32 0] [10 0] 0 0
r 1.292096588 _0_ RTR  --- 26 tcp 1040 [0 0 0 0] ------- [0:0 9:0 32 0] [10 0] 0 0
SFs 1.292096588 _0_ 26 [0 -> 9] 1(0) to 6 
s 1.292096588 _0_ RTR  --- 25 tcp 1060 [0 0 0 0] ------- [0:0 9:0 32 6] [9 0] 0 0
s 1.292096588 _0_ RTR  --- 26 tcp 1060 [0 0 0 0] ------- [0:0 9:0 32 6] [10 0] 0 0
r 1.302242333 _9_ RTR  --- 22 tcp 1060 [13a 9 6 800] ------- [0:0 9:0 31 9] [7 0] 2 0
r 1.302242333 _9_ AGT  --- 22 tcp 1040 [13a 9 6 800] ------- [0:0 9:0 31 9] [7 0] 2 0
s 1.302242333 _9_ AGT  --- 27 ack 40 [0 0 0 0] ------- [9:0 0:0 32 0] [7 0] 0 0
r 1.302242333 _9_ RTR  --- 27 ack 40 [0 0 0 0] ------- [9:0 0:0 32 0] [7 0] 0 0
SFs 1.302242333 _9_ 27 [9 -> 0] 1(0) to 2 
s 1.302242333 _9_ RTR  --- 27 ack 60 [0 0 0 0] ------- [9:0 0:0 32 2] [7 0] 0 0
r 1.304249000 _0_ RTR  --- 21 ack 60 [13a 0 2 800] ------- [9:0 0:0 31 0] [5 0] 2 0
r 1.304249000 _0_ AGT  --- 21 ack 40 [13a 0 2 800] ------- [9:0 0:0 31 0] [5 0] 2 0
s 1.304249000 _0_ AGT  --- 28 tcp 1040 [0 0 0 0] ------- [0:0 9:0 32 0] [11 0] 0 0
r 1.304249000 _0_ RTR  --- 28 tcp 1040 [0 0 0 0] ------- [0:0 9:0 32 0] [11 0] 0 0
SFs 1.304249000 _0_ 28 [0 -> 9] 1(0) to 6 
s 1.304249000 _0_ AGT  --- 29 tcp 1040 [0 0 0 0] ------- [0:0 9:0 32 0] [12 0] 0 0
r 1.304249000 _0_ RTR  --- 29 tcp 1040 [0 0 0 0] ------- [0:0 9:0 32 0] [12 0] 0 0
SFs 1.304249000 _0_ 29 [0 -> 9] 1(0) to 6 
s 1.304249000 _0_ RTR  --- 28 tcp 1060 [0 0 0 0] ------- [0:0 9:0 32 6] [11 0] 0 0
s 1.304249000 _0_ RTR  --- 29 tcp 1060 [0 0 0 0] ------- [0:0 9:0 32 6] [12 0] 0 0
r 1.306859943 _2_ RTR  --- 24 ack 60 [13a 2 9 800] ------- [9:0 0:0 32 2] [6 0] 1 0
SFf 1.306859943 _2_ 24 [9 -> 0] 1 to 0
f 1.306859943 _2_ RTR  --- 24 ack 60 [13a 2 9 800] ------- [9:0 0:0 31 0] [6 0] 1 0
r 1.316956455 _6_ RTR  --- 23 tcp 1060 [13a 6 0 800] ------- [0:0 9:0 32 6] [8 0] 1 0
SFf 1.316956455 _6_ 23 [0 -> 9] 1 to 9
f 1.316956455 _6_ RTR  --- 23 tcp 1060 [13a 6 0 800] ------- [0:0 9:0 31 9] [8 0] 1 0
r 1.318982788 _0_ RTR  --- 24 ack 60 [13a 0 2 800] ------- [9:0 0:0 31 0] [6 0] 2 0
r 1.318982788 _0_ AGT  --- 24 ack 40 [13a 0 2 800] ------- [9:0 0:0 31 0] [6 0] 2 0
s 1.318982788 _0_ AGT  --- 30 tcp 1040 [0 0 0 0] ------- [0:0 9:0 32 0] [13 0] 0 0
r 1.318982788 _0_ RTR  --- 30 tcp 1040 [0 0 0 0] ------- [0:0 9:0 32 0] [13 0] 0 0
SFs 1.318982788 _0_ 30 [0 -> 9] 1(0) to 6 
s 1.318982788 _0_ AGT  --- 31 tcp 1040 [0 0 0 0] ------- [0:0 9:0 32 0] [14 0] 0 0
r 1.318982788 _0_ RTR  --- 31 tcp 1040 [0 0 0 0] ------- [0:0 9:0 32 0] [14 0] 0 0
SFs 1.318982788 _0_ 31 [0 -> 9] 1(0) to 6 
s 1.318982788 _0_ RTR  --- 30 tcp 1060 [0 0 0 0] ------- [0:0 9:0 32 6] [13 0] 0 0
s 1.318982788 _0_ RTR  --- 31 tcp 1060 [0 0 0 0] ------- [0:0 9:0 32 6] [14 0] 0 0
r 1.329428534 _9_ RTR  --- 23 tcp 1060 [13a 9 6 800] ------- [0:0 9:0 31 9] [8 0] 2 0
r 1.329428534 _9_ AGT  --- 23 tcp 1040 [13a 9 6 800] ------- [0:0 9:0 31 9] [8 0] 2 0
s 1.329428534 _9_ AGT  --- 32 ack 40 [0 0 0 0] ------- [9:0 0:0 32 0] [8 0] 0 0
r 1.329428534 _9_ RTR  --- 32 ack 40 [0 0 0 0] ------- [9:0 0:0 32 0] [8 0] 0 0
SFs 1.329428534 _9_ 32 [9 -> 0] 1(0) to 2 
s 1.329428534 _9_ RTR  --- 32 ack 60 [0 0 0 0] ------- [9:0 0:0 32 2] [8 0] 0 0
r 1.331594534 _2_ RTR  --- 27 ack 60 [13a 2 9 800] ------- [9:0 0:0 32 2] [7 0] 1 0
SFf 1.331594534 _2_ 27 [9 -> 0] 1 to 0
f 1.331594534 _2_ RTR  --- 27 ack 60 [13a 2 9 800] ------- [9:0 0:0 31 0] [7 0] 1 0
r 1.341711046 _6_ RTR  --- 25 tcp 1060 [13a 6 0 800] ------- [0:0 9:0 32 6] [9 0] 1 0
SFf 1.341711046 _6_ 25 [0 -> 9] 1 to 9
f 1.341711046 _6_ RTR  --- 25 tcp 1060 [13a 6 0 800] ------- [0:0 9:0 31 9] [9 0] 1 0
r 1.343717379 _0_ RTR  --- 27 ack 60 [13a 0 2 800] ------- [9:0 0:0 31 0] [7 0] 2 0
r 1.343717379 _0_ AGT  --- 27 ack 40 [13a 0 2 800] ------- [9:0 0:0 31 0] [7 0] 2 0
s 1.343717379 _0_ AGT  --- 33 tcp 1040 [0 0 0 0] ------- [0:0 9:0 32 0] [15 0] 0 0
r 1.343717379 _0_ RTR  --- 33 tcp 1040 [0 0 0 0] ------- [0:0 9:0 32 0] [15 0] 0 0
SFs 1.343717379 _0_ 33 [0 -> 9] 1(0) to 6 
s 1.343717379 _0_ AGT  --- 34 tcp 1040 [0 0 0 0] ------- [0:0 9:0 32 0] [16 0] 0 0
r 1.343717379 _0_ RTR  --- 34 tcp 1040 [0 0 0 0] ------- [0:0 9:0 32 0] [16 0] 0 0
SFs 1.343717379 _0_ 34 [0 -> 9] 1(0) to 6 
s 1.343717379 _0_ RTR  --- 33 tcp 1060 [0 0 0 0] ------- [0:0 9:0 32 6] [15 0] 0 0
s 1.343717379 _0_ RTR  --- 34 tcp 1060 [0 0 0 0] ------- [0:0 9:0 32 6] [16 0] 0 0
r 1.353723125 _9_ RTR  --- 25 tcp 1060 [13a 9 6 800] ------- [0:0 9:0 31 9] [9 0] 2 0
r 1.353723125 _9_ AGT  --- 25 tcp 1040 [13a 9 6 800] ------- [0:0 9:0 31 9] [9 0] 2 0
s 1.353723125 _9_ AGT  --- 35 ack 40 [0 0 0 0] ------- [9:0 0:0 32 0] [9 0] 0 0
r 1.353723125 _9_ RTR  --- 35 ack 40 [0 0 0 0] ------- [9:0 0:0 32 0] [9 0] 0 0
SFs 1.353723125 _9_ 35 [9 -> 0] 1(0) to 2 
s 1.353723125 _9_ RTR  --- 35 ack 60 [0 0 0 0] ------- [9:0 0:0 32 2] [9 0] 0 0
r 1.356149125 _2_ RTR  --- 32 ack 60 [13a 2 9 800] ------- [9:0 0:0 32 2] [8 0] 1 0
SFf 1.356149125 _2_ 32 [9 -> 0] 1 to 0
f 1.356149125 _2_ RTR  --- 32 ack 60 [13a 2 9 800] ------- [9:0 0:0 31 0] [8 0] 1 0
r 1.358235791 _2_ RTR  --- 35 ack 60 [13a 2 9 800] ------- [9:0 0:0 32 2] [9 0] 1 0
SFf 1.358235791 _2_ 35 [9 -> 0] 1 to 0
f 1.358235791 _2_ RTR  --- 35 ack 60 [13a 2 9 800] ------- [9:0 0:0 31 0] [9 0] 1 0
r 1.368592303 _6_ RTR  --- 26 tcp 1060 [13a 6 0 800] ------- [0:0 9:0 32 6] [10 0] 1 0
SFf 1.368592303 _6_ 26 [0 -> 9] 1 to 9
f 1.368592303 _6_ RTR  --- 26 tcp 1060 [13a 6 0 800] ------- [0:0 9:0 31 9] [10 0] 1 0
r 1.370658637 _0_ RTR  --- 32 ack 60 [13a 0 2 800] ------- [9:0 0:0 31 0] [8 0] 2 0
r 1.370658637 _0_ AGT  --- 32 ack 40 [13a 0 2 800] ------- [9:0 0:0 31 0] [8 0] 2 0
s 1.370658637 _0_ AGT  --- 36 tcp 1040 [0 0 0 0] ------- [0:0 9:0 32 0] [17 0] 0 0
r 1.370658637 _0_ RTR  --- 36 tcp 1040 [0 0 0 0] ------- [0:0 9:0 32 0] [17 0] 0 0
SFs 1.370658637 _0_ 36 [0 -> 9] 1(0) to 6 
s 1.370658637 _0_ AGT  --- 37 tcp 1040 [0 0 0 0] ------- [0:0 9:0 32 0] [18 0] 0 0
r 1.370658637 _0_ RTR  --- 37 tcp 1040 [0 0 0 0] ------- [0:0 9:0 32 0] [18 0] 0 0
SFs 1.370658637 _0_ 37 [0 -> 9] 1(0) to 6 
s 1.370658637 _0_ RTR  --- 36 tcp 1060 [0 0 0 0] ------- [0:0 9:0 32 6] [17 0] 0 0
s 1.370658637 _0_ RTR  --- 37 tcp 1060 [0 0 0 0] ------- [0:0 9:0 32 6] [18 0] 0 0
r 1.380704873 _6_ RTR  --- 28 tcp 1060 [13a 6 0 800] ------- [0:0 9:0 32 6] [11 0] 1 0
SFf 1.380704873 _6_ 28 [0 -> 9] 1 to 9
f 1.380704873 _6_ RTR  --- 28 tcp 1060 [13a 6 0 800] ------- [0:0 9:0 31 9] [11 0] 1 0
r 1.390749873 _9_ RTR  --- 26 tcp 1060 [13a 9 6 800] ------- [0:0 9:0 31 9] [10 0] 2 0
r 1.390749873 _9_ AGT  --- 26 tcp 1040 [13a 9 6 800] ------- [0:0 9:0 31 9] [10 0] 2 0
s 1.390749873 _9_ AGT  --- 38 ack 40 [0 0 0 0] ------- [9:0 0:0 32 0] [10 0] 0 0
r 1.390749873 _9_ RTR  --- 38 ack 40 [0 0 0 0] ------- [9:0 0:0 32 0] [10 0] 0 0
SFs 1.390749873 _9_ 38 [9 -> 0] 1(0) to 2 
s 1.390749873 _9_ RTR  --- 38 ack 60 [0 0 0 0] ------- [9:0 0:0 32 2] [10 0] 0 0
r 1.392816539 _0_ RTR  --- 35 ack 60 [13a 0 2 800] ------- [9:0 0:0 31 0] [9 0] 2 0
r 1.392816539 _0_ AGT  --- 35 ack 40 [13a 0 2 800] ------- [9:0 0:0 31 0] [9 0] 2 0
s 1.392816539 _0_ AGT  --- 39 tcp 1040 [0 0 0 0] ------- [0:0 9:0 32 0] [19 0] 0 0
r 1.392816539 _0_ RTR  --- 39 tcp 1040 [0 0 0 0] ------- [0:0 9:0 32 0] [19 0] 0 0
SFs 1.392816539 _0_ 39 [0 -> 9] 1(0) to 6 
s 1.392816539 _0_ AGT  --- 40 tcp 1040 [0 0 0 0] ------- [0:0 9:0 32 0] [20 0] 0 0
r 1.392816539 _0_ RTR  --- 40 tcp 1040 [0 0 0 0] ------- [0:0 9:0 32 0] [20 0] 0 0
SFs 1.392816539 _0_ 40 [0 -> 9] 1(0) to 6 
s 1.392816539 _0_ RTR  --- 39 tcp 1060 [0 0 0 0] ------- [0:0 9:0 32 6] [19 0] 0 0
s 1.392816539 _0_ RTR  --- 40 tcp 1060 [0 0 0 0] ------- [0:0 9:0 32 6] [20 0] 0 0
r 1.402962285 _9_ RTR  --- 28 tcp 1060 [13a 9 6 800] ------- [0:0 9:0 31 9] [11 0] 2 0
r 1.402962285 _9_ AGT  --- 28 tcp 1040 [13a 9 6 800] ------- [0:0 9:0 31 9] [11 0] 2 0
s 1.402962285 _9_ AGT  --- 41 ack 40 [0 0 0 0] ------- [9:0 0:0 32 0] [11 0] 0 0
r 1.402962285 _9_ RTR  --- 41 ack 40 [0 0 0 0] ------- [9:0 0:0 32 0] [11 0] 0 0
SFs 1.402962285 _9_ 41 [9 -> 0] 1(0) to 2 
s 1.402962285 _9_ RTR  --- 41 ack 60 [0 0 0 0] ------- [9:0 0:0 32 2] [11 0] 0 0
r 1.405088285 _2_ RTR  --- 38 ack 60 [13a 2 9 800] ------- [9:0 0:0 32 2] [10 0] 1 0
SFf 1.405088285 _2_ 38 [9 -> 0] 1 to 0
f 1.405088285 _2_ RTR  --- 38 ack 60 [13a 2 9 800] ------- [9:0 0:0 31 0] [10 0] 1 0
r 1.407114952 _2_ RTR  --- 41 ack 60 [13a 2 9 800] ------- [9:0 0:0 32 2] [11 0] 1 0
SFf 1.407114952 _2_ 41 [9 -> 0] 1 to 0
f 1.407114952 _2_ RTR  --- 41 ack 60 [13a 2 9 800] ------- [9:0 0:0 31 0] [11 0] 1 0
r 1.409280952 _0_ RTR  --- 38 ack 60 [13a 0 2 800] ------- [9:0 0:0 31 0] [10 0] 2 0
r 1.409280952 _0_ AGT  --- 38 ack 40 [13a 0 2 800] ------- [9:0 0:0 31 0] [10 0] 2 0
s 1.409280952 _0_ AGT  --- 42 tcp 1040 [0 0 0 0] ------- [0:0 9:0 32 0] [21 0] 0 0
r 1.409280952 _0_ RTR  --- 42 tcp 1040 [0 0 0 0] ------- [0:0 9:0 32 0] [21 0] 0 0