+ 0.1 0 2 tcp 40 ------- 1 0.0 4.0 0 0
- 0.1 0 2 tcp 40 ------- 1 0.0 4.0 0 0
r 0.11016 0 2 tcp 40 ------- 1 0.0 4.0 0 0
+ 0.11016 2 3 tcp 40 ------- 1 0.0 4.0 0 0
- 0.11016 2 3 tcp 40 ------- 1 0.0 4.0 0 0
r 0.211227 2 3 tcp 40 ------- 1 0.0 4.0 0 0
+ 0.211227 3 4 tcp 40 ------- 1 0.0 4.0 0 0
- 0.211227 3 4 tcp 40 ------- 1 0.0 4.0 0 0
r 0.251867 3 4 tcp 40 ------- 1 0.0 4.0 0 0
+ 0.251867 4 3 ack 40 ------- 1 4.0 0.0 0 1
- 0.251867 4 3 ack 40 ------- 1 4.0 0.0 0 1
r 0.292507 4 3 ack 40 ------- 1 4.0 0.0 0 1
+ 0.292507 3 2 ack 40 ------- 1 4.0 0.0 0 1
- 0.292507 3 2 ack 40 ------- 1 4.0 0.0 0 1
r 0.393573 3 2 ack 40 ------- 1 4.0 0.0 0 1
+ 0.393573 2 0 ack 40 ------- 1 4.0 0.0 0 1
- 0.393573 2 0 ack 40 ------- 1 4.0 0.0 0 1
r 0.403733 2 0 ack 40 ------- 1 4.0 0.0 0 1
+ 0.403733 0 2 tcp 1040 ------- 1 0.0 4.0 1 2
- 0.403733 0 2 tcp 1040 ------- 1 0.0 4.0 1 2
+ 0.403733 0 2 tcp 1040 ------- 1 0.0 4.0 2 3
- 0.407893 0 2 tcp 1040 ------- 1 0.0 4.0 2 3
r 0.417893 0 2 tcp 1040 ------- 1 0.0 4.0 1 2
+ 0.417893 2 3 tcp 1040 ------- 1 0.0 4.0 1 2
- 0.417893 2 3 tcp 1040 ------- 1 0.0 4.0 1 2
r 0.422053 0 2 tcp 1040 ------- 1 0.0 4.0 2 3
+ 0.422053 2 3 tcp 1040 ------- 1 0.0 4.0 2 3
- 0.445627 2 3 tcp 1040 ------- 1 0.0 4.0 2 3
r 0.545627 2 3 tcp 1040 ------- 1 0.0 4.0 1 2
+ 0.545627 3 4 tcp 1040 ------- 1 0.0 4.0 1 2
- 0.545627 3 4 tcp 1040 ------- 1 0.0 4.0 1 2
r 0.57336 2 3 tcp 1040 ------- 1 0.0 4.0 2 3
+ 0.57336 3 4 tcp 1040 ------- 1 0.0 4.0 2 3
- 0.57336 3 4 tcp 1040 ------- 1 0.0 4.0 2 3
r 0.602267 3 4 tcp 1040 ------- 1 0.0 4.0 1 2
+ 0.602267 4 3 ack 40 ------- 1 4.0 0.0 1 4
- 0.602267 4 3 ack 40 ------- 1 4.0 0.0 1 4
r 0.63 3 4 tcp 1040 ------- 1 0.0 4.0 2 3
+ 0.63 4 3 ack 40 ------- 1 4.0 0.0 2 5
- 0.63 4 3 ack 40 ------- 1 4.0 0.0 2 5
r 0.642907 4 3 ack 40 ------- 1 4.0 0.0 1 4
+ 0.642907 3 2 ack 40 ------- 1 4.0 0.0 1 4
- 0.642907 3 2 ack 40 ------- 1 4.0 0.0 1 4
r 0.67064 4 3 ack 40 ------- 1 4.0 0.0 2 5
+ 0.67064 3 2 ack 40 ------- 1 4.0 0.0 2 5
- 0.67064 3 2 ack 40 ------- 1 4.0 0.0 2 5
r 0.743973 3 2 ack 40 ------- 1 4.0 0.0 1 4
+ 0.743973 2 0 ack 40 ------- 1 4.0 0.0 1 4
- 0.743973 2 0 ack 40 ------- 1 4.0 0.0 1 4
r 0.754133 2 0 ack 40 ------- 1 4.0 0.0 1 4
+ 0.754133 0 2 tcp 1040 ------- 1 0.0 4.0 3 6
- 0.754133 0 2 tcp 1040 ------- 1 0.0 4.0 3 6
+ 0.754133 0 2 tcp 1040 ------- 1 0.0 4.0 4 7
- 0.758293 0 2 tcp 1040 ------- 1 0.0 4.0 4 7
r 0.768293 0 2 tcp 1040 ------- 1 0.0 4.0 3 6
+ 0.768293 2 3 tcp 1040 ------- 1 0.0 4.0 3 6
- 0.768293 2 3 tcp 1040 ------- 1 0.0 4.0 3 6
r 0.771707 3 2 ack 40 ------- 1 4.0 0.0 2 5
+ 0.771707 2 0 ack 40 ------- 1 4.0 0.0 2 5
- 0.771707 2 0 ack 40 ------- 1 4.0 0.0 2 5
r 0.772453 0 2 tcp 1040 ------- 1 0.0 4.0 4 7
+ 0.772453 2 3 tcp 1040 ------- 1 0.0 4.0 4 7
r 0.781867 2 0 ack 40 ------- 1 4.0 0.0 2 5
+ 0.781867 0 2 tcp 1040 ------- 1 0.0 4.0 5 8
- 0.781867 0 2 tcp 1040 ------- 1 0.0 4.0 5 8
+ 0.781867 0 2 tcp 1040 ------- 1 0.0 4.0 6 9
- 0.786027 0 2 tcp 1040 ------- 1 0.0 4.0 6 9
r 0.796027 0 2 tcp 1040 ------- 1 0.0 4.0 5 8
+ 0.796027 2 3 tcp 1040 ------- 1 0.0 4.0 5 8
- 0.796027 2 3 tcp 1040 ------- 1 0.0 4.0 4 7
r 0.800187 0 2 tcp 1040 ------- 1 0.0 4.0 6 9
+ 0.800187 2 3 tcp 1040 ------- 1 0.0 4.0 6 9
- 0.82376 2 3 tcp 1040 ------- 1 0.0 4.0 5 8
- 0.851493 2 3 tcp 1040 ------- 1 0.0 4.0 6 9
r 0.896027 2 3 tcp 1040 ------- 1 0.0 4.0 3 6
+ 0.896027 3 4 tcp 1040 ------- 1 0.0 4.0 3 6
- 0.896027 3 4 tcp 1040 ------- 1 0.0 4.0 3 6
r 0.92376 2 3 tcp 1040 ------- 1 0.0 4.0 4 7
+ 0.92376 3 4 tcp 1040 ------- 1 0.0 4.0 4 7
- 0.92376 3 4 tcp 1040 ------- 1 0.0 4.0 4 7
r 0.951493 2 3 tcp 1040 ------- 1 0.0 4.0 5 8
+ 0.951493 3 4 tcp 1040 ------- 1 0.0 4.0 5 8
- 0.951493 3 4 tcp 1040 ------- 1 0.0 4.0 5 8
r 0.952667 3 4 tcp 1040 ------- 1 0.0 4.0 3 6
+ 0.952667 4 3 ack 40 ------- 1 4.0 0.0 3 10
- 0.952667 4 3 ack 40 ------- 1 4.0 0.0 3 10
r 0.979227 2 3 tcp 1040 ------- 1 0.0 4.0 6 9
+ 0.979227 3 4 tcp 1040 ------- 1 0.0 4.0 6 9
- 0.979227 3 4 tcp 1040 ------- 1 0.0 4.0 6 9
r 0.9804 3 4 tcp 1040 ------- 1 0.0 4.0 4 7
+ 0.9804 4 3 ack 40 ------- 1 4.0 0.0 4 11
- 0.9804 4 3 ack 40 ------- 1 4.0 0.0 4 11
r 0.993307 4 3 ack 40 ------- 1 4.0 0.0 3 10
+ 0.993307 3 2 ack 40 ------- 1 4.0 0.0 3 10
- 0.993307 3 2 ack 40 ------- 1 4.0 0.0 3 10
+ 1 1 2 cbr 1000 ------- 2 1.0 5.0 0 12
- 1 1 2 cbr 1000 ------- 2 1.0 5.0 0 12
r 1.008133 3 4 tcp 1040 ------- 1 0.0 4.0 5 8
+ 1.008133 4 3 ack 40 ------- 1 4.0 0.0 5 13
- 1.008133 4 3 ack 40 ------- 1 4.0 0.0 5 13
r 1.014 1 2 cbr 1000 ------- 2 1.0 5.0 0 12
+ 1.014 2 3 cbr 1000 ------- 2 1.0 5.0 0 12
- 1.014 2 3 cbr 1000 ------- 2 1.0 5.0 0 12
r 1.02104 4 3 ack 40 ------- 1 4.0 0.0 4 11
+ 1.02104 3 2 ack 40 ------- 1 4.0 0.0 4 11
- 1.02104 3 2 ack 40 ------- 1 4.0 0.0 4 11
r 1.035867 3 4 tcp 1040 ------- 1 0.0 4.0 6 9
+ 1.035867 4 3 ack 40 ------- 1 4.0 0.0 6 14
- 1.035867 4 3 ack 40 ------- 1 4.0 0.0 6 14
r 1.048773 4 3 ack 40 ------- 1 4.0 0.0 5 13
+ 1.048773 3 2 ack 40 ------- 1 4.0 0.0 5 13
- 1.048773 3 2 ack 40 ------- 1 4.0 0.0 5 13
r 1.076507 4 3 ack 40 ------- 1 4.0 0.0 6 14
+ 1.076507 3 2 ack 40 ------- 1 4.0 0.0 6 14
- 1.076507 3 2 ack 40 ------- 1 4.0 0.0 6 14
+ 1.08 1 2 cbr 1000 ------- 2 1.0 5.0 1 15
- 1.08 1 2 cbr 1000 ------- 2 1.0 5.0 1 15
r 1.094 1 2 cbr 1000 ------- 2 1.0 5.0 1 15
+ 1.094 2 3 cbr 1000 ------- 2 1.0 5.0 1 15
- 1.094 2 3 cbr 1000 ------- 2 1.0 5.0 1 15
r 1.094373 3 2 ack 40 ------- 1 4.0 0.0 3 10
+ 1.094373 2 0 ack 40 ------- 1 4.0 0.0 3 10
- 1.094373 2 0 ack 40 ------- 1 4.0 0.0 3 10
r 1.104533 2 0 ack 40 ------- 1 4.0 0.0 3 10
+ 1.104533 0 2 tcp 1040 ------- 1 0.0 4.0 7 16
- 1.104533 0 2 tcp 1040 ------- 1 0.0 4.0 7 16
+ 1.104533 0 2 tcp 1040 ------- 1 0.0 4.0 8 17
- 1.108693 0 2 tcp 1040 ------- 1 0.0 4.0 8 17
r 1.118693 0 2 tcp 1040 ------- 1 0.0 4.0 7 16
+ 1.118693 2 3 tcp 1040 ------- 1 0.0 4.0 7 16
- 1.120667 2 3 tcp 1040 ------- 1 0.0 4.0 7 16
r 1.122107 3 2 ack 40 ------- 1 4.0 0.0 4 11
+ 1.122107 2 0 ack 40 ------- 1 4.0 0.0 4 11
- 1.122107 2 0 ack 40 ------- 1 4.0 0.0 4 11
r 1.122853 0 2 tcp 1040 ------- 1 0.0 4.0 8 17
+ 1.122853 2 3 tcp 1040 ------- 1 0.0 4.0 8 17
r 1.132267 2 0 ack 40 ------- 1 4.0 0.0 4 11
+ 1.132267 0 2 tcp 1040 ------- 1 0.0 4.0 9 18
- 1.132267 0 2 tcp 1040 ------- 1 0.0 4.0 9 18
+ 1.132267 0 2 tcp 1040 ------- 1 0.0 4.0 10 19
- 1.136427 0 2 tcp 1040 ------- 1 0.0 4.0 10 19
r 1.140667 2 3 cbr 1000 ------- 2 1.0 5.0 0 12
+ 1.140667 3 5 cbr 1000 ------- 2 1.0 5.0 0 12
- 1.140667 3 5 cbr 1000 ------- 2 1.0 5.0 0 12
r 1.146427 0 2 tcp 1040 ------- 1 0.0 4.0 9 18
+ 1.146427 2 3 tcp 1040 ------- 1 0.0 4.0 9 18
- 1.1484 2 3 tcp 1040 ------- 1 0.0 4.0 8 17
r 1.14984 3 2 ack 40 ------- 1 4.0 0.0 5 13
+ 1.14984 2 0 ack 40 ------- 1 4.0 0.0 5 13
- 1.14984 2 0 ack 40 ------- 1 4.0 0.0 5 13
r 1.150587 0 2 tcp 1040 ------- 1 0.0 4.0 10 19
+ 1.150587 2 3 tcp 1040 ------- 1 0.0 4.0 10 19
r 1.16 2 0 ack 40 ------- 1 4.0 0.0 5 13
+ 1.16 0 2 tcp 1040 ------- 1 0.0 4.0 11 20
- 1.16 0 2 tcp 1040 ------- 1 0.0 4.0 11 20
+ 1.16 0 2 tcp 1040 ------- 1 0.0 4.0 12 21
+ 1.16 1 2 cbr 1000 ------- 2 1.0 5.0 2 22
- 1.16 1 2 cbr 1000 ------- 2 1.0 5.0 2 22
- 1.16416 0 2 tcp 1040 ------- 1 0.0 4.0 12 21
r 1.174 1 2 cbr 1000 ------- 2 1.0 5.0 2 22
+ 1.174 2 3 cbr 1000 ------- 2 1.0 5.0 2 22
r 1.17416 0 2 tcp 1040 ------- 1 0.0 4.0 11 20
+ 1.17416 2 3 tcp 1040 ------- 1 0.0 4.0 11 20
- 1.176133 2 3 tcp 1040 ------- 1 0.0 4.0 9 18
r 1.177573 3 2 ack 40 ------- 1 4.0 0.0 6 14
+ 1.177573 2 0 ack 40 ------- 1 4.0 0.0 6 14
- 1.177573 2 0 ack 40 ------- 1 4.0 0.0 6 14
r 1.17832 0 2 tcp 1040 ------- 1 0.0 4.0 12 21
+ 1.17832 2 3 tcp 1040 ------- 1 0.0 4.0 12 21
r 1.186667 3 5 cbr 1000 ------- 2 1.0 5.0 0 12
r 1.187733 2 0 ack 40 ------- 1 4.0 0.0 6 14
+ 1.187733 0 2 tcp 1040 ------- 1 0.0 4.0 13 23
- 1.187733 0 2 tcp 1040 ------- 1 0.0 4.0 13 23
+ 1.187733 0 2 tcp 1040 ------- 1 0.0 4.0 14 24
- 1.191893 0 2 tcp 1040 ------- 1 0.0 4.0 14 24
r 1.201893 0 2 tcp 1040 ------- 1 0.0 4.0 13 23
+ 1.201893 2 3 tcp 1040 ------- 1 0.0 4.0 13 23
- 1.203867 2 3 tcp 1040 ------- 1 0.0 4.0 10 19
r 1.206053 0 2 tcp 1040 ------- 1 0.0 4.0 14 24
+ 1.206053 2 3 tcp 1040 ------- 1 0.0 4.0 14 24
r 1.220667 2 3 cbr 1000 ------- 2 1.0 5.0 1 15
+ 1.220667 3 5 cbr 1000 ------- 2 1.0 5.0 1 15
- 1.220667 3 5 cbr 1000 ------- 2 1.0 5.0 1 15
- 1.2316 2 3 cbr 1000 ------- 2 1.0 5.0 2 22
+ 1.24 1 2 cbr 1000 ------- 2 1.0 5.0 3 25
- 1.24 1 2 cbr 1000 ------- 2 1.0 5.0 3 25
r 1.2484 2 3 tcp 1040 ------- 1 0.0 4.0 7 16
+ 1.2484 3 4 tcp 1040 ------- 1 0.0 4.0 7 16
- 1.2484 3 4 tcp 1040 ------- 1 0.0 4.0 7 16
r 1.254 1 2 cbr 1000 ------- 2 1.0 5.0 3 25
+ 1.254 2 3 cbr 1000 ------- 2 1.0 5.0 3 25
- 1.258267 2 3 tcp 1040 ------- 1 0.0 4.0 11 20
r 1.266667 3 5 cbr 1000 ------- 2 1.0 5.0 1 15
r 1.276133 2 3 tcp 1040 ------- 1 0.0 4.0 8 17
+ 1.276133 3 4 tcp 1040 ------- 1 0.0 4.0 8 17
- 1.276133 3 4 tcp 1040 ------- 1 0.0 4.0 8 17
- 1.286 2 3 tcp 1040 ------- 1 0.0 4.0 12 21
r 1.303867 2 3 tcp 1040 ------- 1 0.0 4.0 9 18
+ 1.303867 3 4 tcp 1040 ------- 1 0.0 4.0 9 18
- 1.303867 3 4 tcp 1040 ------- 1 0.0 4.0 9 18
r 1.30504 3 4 tcp 1040 ------- 1 0.0 4.0 7 16
+ 1.30504 4 3 ack 40 ------- 1 4.0 0.0 7 26
- 1.30504 4 3 ack 40 ------- 1 4.0 0.0 7 26
- 1.313733 2 3 tcp 1040 ------- 1 0.0 4.0 13 23
+ 1.32 1 2 cbr 1000 ------- 2 1.0 5.0 4 27
- 1.32 1 2 cbr 1000 ------- 2 1.0 5.0 4 27
r 1.3316 2 3 tcp 1040 ------- 1 0.0 4.0 10 19
+ 1.3316 3 4 tcp 1040 ------- 1 0.0 4.0 10 19
- 1.3316 3 4 tcp 1040 ------- 1 0.0 4.0 10 19
r 1.332773 3 4 tcp 1040 ------- 1 0.0 4.0 8 17
+ 1.332773 4 3 ack 40 ------- 1 4.0 0.0 8 28
- 1.332773 4 3 ack 40 ------- 1 4.0 0.0 8 28
r 1.334 1 2 cbr 1000 ------- 2 1.0 5.0 4 27
+ 1.334 2 3 cbr 1000 ------- 2 1.0 5.0 4 27
- 1.341467 2 3 tcp 1040 ------- 1 0.0 4.0 14 24
r 1.34568 4 3 ack 40 ------- 1 4.0 0.0 7 26
+ 1.34568 3 2 ack 40 ------- 1 4.0 0.0 7 26
- 1.34568 3 2 ack 40 ------- 1 4.0 0.0 7 26
r 1.358267 2 3 cbr 1000 ------- 2 1.0 5.0 2 22
+ 1.358267 3 5 cbr 1000 ------- 2 1.0 5.0 2 22
- 1.358267 3 5 cbr 1000 ------- 2 1.0 5.0 2 22
r 1.360507 3 4 tcp 1040 ------- 1 0.0 4.0 9 18
+ 1.360507 4 3 ack 40 ------- 1 4.0 0.0 9 29
- 1.360507 4 3 ack 40 ------- 1 4.0 0.0 9 29
- 1.3692 2 3 cbr 1000 ------- 2 1.0 5.0 3 25
r 1.373413 4 3 ack 40 ------- 1 4.0 0.0 8 28
+ 1.373413 3 2 ack 40 ------- 1 4.0 0.0 8 28
- 1.373413 3 2 ack 40 ------- 1 4.0 0.0 8 28
r 1.386 2 3 tcp 1040 ------- 1 0.0 4.0 11 20
+ 1.386 3 4 tcp 1040 ------- 1 0.0 4.0 11 20
- 1.386 3 4 tcp 1040 ------- 1 0.0 4.0 11 20
r 1.38824 3 4 tcp 1040 ------- 1 0.0 4.0 10 19
+ 1.38824 4 3 ack 40 ------- 1 4.0 0.0 10 30
- 1.38824 4 3 ack 40 ------- 1 4.0 0.0 10 30
- 1.395867 2 3 cbr 1000 ------- 2 1.0 5.0 4 27
+ 1.4 1 2 cbr 1000 ------- 2 1.0 5.0 5 31
- 1.4 1 2 cbr 1000 ------- 2 1.0 5.0 5 31
r 1.401147 4 3 ack 40 ------- 1 4.0 0.0 9 29
+ 1.401147 3 2 ack 40 ------- 1 4.0 0.0 9 29
- 1.401147 3 2 ack 40 ------- 1 4.0 0.0 9 29
r 1.404267 3 5 cbr 1000 ------- 2 1.0 5.0 2 22
r 1.413733 2 3 tcp 1040 ------- 1 0.0 4.0 12 21
+ 1.413733 3 4 tcp 1040 ------- 1 0.0 4.0 12 21
- 1.413733 3 4 tcp 1040 ------- 1 0.0 4.0 12 21
r 1.414 1 2 cbr 1000 ------- 2 1.0 5.0 5 31
+ 1.414 2 3 cbr 1000 ------- 2 1.0 5.0 5 31
- 1.422533 2 3 cbr 1000 ------- 2 1.0 5.0 5 31
r 1.42888 4 3 ack 40 ------- 1 4.0 0.0 10 30
+ 1.42888 3 2 ack 40 ------- 1 4.0 0.0 10 30
- 1.42888 3 2 ack 40 ------- 1 4.0 0.0 10 30
r 1.441467 2 3 tcp 1040 ------- 1 0.0 4.0 13 23
+ 1.441467 3 4 tcp 1040 ------- 1 0.0 4.0 13 23
- 1.441467 3 4 tcp 1040 ------- 1 0.0 4.0 13 23
r 1.44264 3 4 tcp 1040 ------- 1 0.0 4.0 11 20
+ 1.44264 4 3 ack 40 ------- 1 4.0 0.0 11 32
- 1.44264 4 3 ack 40 ------- 1 4.0 0.0 11 32
r 1.446747 3 2 ack 40 ------- 1 4.0 0.0 7 26
+ 1.446747 2 0 ack 40 ------- 1 4.0 0.0 7 26
- 1.446747 2 0 ack 40 ------- 1 4.0 0.0 7 26
r 1.456907 2 0 ack 40 ------- 1 4.0 0.0 7 26
+ 1.456907 0 2 tcp 1040 ------- 1 0.0 4.0 15 33
- 1.456907 0 2 tcp 1040 ------- 1 0.0 4.0 15 33
+ 1.456907 0 2 tcp 1040 ------- 1 0.0 4.0 16 34
- 1.461067 0 2 tcp 1040 ------- 1 0.0 4.0 16 34
r 1.4692 2 3 tcp 1040 ------- 1 0.0 4.0 14 24
+ 1.4692 3 4 tcp 1040 ------- 1 0.0 4.0 14 24
- 1.4692 3 4 tcp 1040 ------- 1 0.0 4.0 14 24
r 1.470373 3 4 tcp 1040 ------- 1 0.0 4.0 12 21
+ 1.470373 4 3 ack 40 ------- 1 4.0 0.0 12 35
- 1.470373 4 3 ack 40 ------- 1 4.0 0.0 12 35
r 1.471067 0 2 tcp 1040 ------- 1 0.0 4.0 15 33
+ 1.471067 2 3 tcp 1040 ------- 1 0.0 4.0 15 33
- 1.471067 2 3 tcp 1040 ------- 1 0.0 4.0 15 33
r 1.47448 3 2 ack 40 ------- 1 4.0 0.0 8 28
+ 1.47448 2 0 ack 40 ------- 1 4.0 0.0 8 28
- 1.47448 2 0 ack 40 ------- 1 4.0 0.0 8 28
r 1.475227 0 2 tcp 1040 ------- 1 0.0 4.0 16 34
+ 1.475227 2 3 tcp 1040 ------- 1 0.0 4.0 16 34
+ 1.48 1 2 cbr 1000 ------- 2 1.0 5.0 6 36
- 1.48 1 2 cbr 1000 ------- 2 1.0 5.0 6 36
r 1.48328 4 3 ack 40 ------- 1 4.0 0.0 11 32
+ 1.48328 3 2 ack 40 ------- 1 4.0 0.0 11 32
- 1.48328 3 2 ack 40 ------- 1 4.0 0.0 11 32
r 1.48464 2 0 ack 40 ------- 1 4.0 0.0 8 28
+ 1.48464 0 2 tcp 1040 ------- 1 0.0 4.0 17 37
- 1.48464 0 2 tcp 1040 ------- 1 0.0 4.0 17 37
+ 1.48464 0 2 tcp 1040 ------- 1 0.0 4.0 18 38
- 1.4888 0 2 tcp 1040 ------- 1 0.0 4.0 18 38
r 1.494 1 2 cbr 1000 ------- 2 1.0 5.0 6 36
+ 1.494 2 3 cbr 1000 ------- 2 1.0 5.0 6 36
r 1.495867 2 3 cbr 1000 ------- 2 1.0 5.0 3 25
+ 1.495867 3 5 cbr 1000 ------- 2 1.0 5.0 3 25
- 1.495867 3 5 cbr 1000 ------- 2 1.0 5.0 3 25
r 1.498107 3 4 tcp 1040 ------- 1 0.0 4.0 13 23
+ 1.498107 4 3 ack 40 ------- 1 4.0 0.0 13 39
- 1.498107 4 3 ack 40 ------- 1 4.0 0.0 13 39
- 1.4988 2 3 tcp 1040 ------- 1 0.0 4.0 16 34
r 1.4988 0 2 tcp 1040 ------- 1 0.0 4.0 17 37
+ 1.4988 2 3 tcp 1040 ------- 1 0.0 4.0 17 37
r 1.502213 3 2 ack 40 ------- 1 4.0 0.0 9 29
+ 1.502213 2 0 ack 40 ------- 1 4.0 0.0 9 29
- 1.502213 2 0 ack 40 ------- 1 4.0 0.0 9 29
r 1.50296 0 2 tcp 1040 ------- 1 0.0 4.0 18 38
+ 1.50296 2 3 tcp 1040 ------- 1 0.0 4.0 18 38
r 1.511013 4 3 ack 40 ------- 1 4.0 0.0 12 35
+ 1.511013 3 2 ack 40 ------- 1 4.0 0.0 12 35
- 1.511013 3 2 ack 40 ------- 1 4.0 0.0 12 35
r 1.512373 2 0 ack 40 ------- 1 4.0 0.0 9 29
+ 1.512373 0 2 tcp 1040 ------- 1 0.0 4.0 19 40
- 1.512373 0 2 tcp 1040 ------- 1 0.0 4.0 19 40
+ 1.512373 0 2 tcp 1040 ------- 1 0.0 4.0 20 41
- 1.516533 0 2 tcp 1040 ------- 1 0.0 4.0 20 41
r 1.522533 2 3 cbr 1000 ------- 2 1.0 5.0 4 27
+ 1.522533 3 5 cbr 1000 ------- 2 1.0 5.0 4 27
- 1.522533 3 5 cbr 1000 ------- 2 1.0 5.0 4 27
r 1.52584 3 4 tcp 1040 ------- 1 0.0 4.0 14 24
+ 1.52584 4 3 ack 40 ------- 1 4.0 0.0 14 42
- 1.52584 4 3 ack 40 ------- 1 4.0 0.0 14 42
- 1.526533 2 3 cbr 1000 ------- 2 1.0 5.0 6 36
r 1.526533 0 2 tcp 1040 ------- 1 0.0 4.0 19 40
+ 1.526533 2 3 tcp 1040 ------- 1 0.0 4.0 19 40
r 1.529947 3 2 ack 40 ------- 1 4.0 0.0 10 30
+ 1.529947 2 0 ack 40 ------- 1 4.0 0.0 10 30
- 1.529947 2 0 ack 40 ------- 1 4.0 0.0 10 30
r 1.530693 0 2 tcp 1040 ------- 1 0.0 4.0 20 41
+ 1.530693 2 3 tcp 1040 ------- 1 0.0 4.0 20 41
r 1.538747 4 3 ack 40 ------- 1 4.0 0.0 13 39
+ 1.538747 3 2 ack 40 ------- 1 4.0 0.0 13 39
- 1.538747 3 2 ack 40 ------- 1 4.0 0.0 13 39
r 1.540107 2 0 ack 40 ------- 1 4.0 0.0 10 30
+ 1.540107 0 2 tcp 1040 ------- 1 0.0 4.0 21 43
- 1.540107 0 2 tcp 1040 ------- 1 0.0 4.0 21 43
+ 1.540107 0 2 tcp 1040 ------- 1 0.0 4.0 22 44
r 1.541867 3 5 cbr 1000 ------- 2 1.0 5.0 3 25
- 1.544267 0 2 tcp 1040 ------- 1 0.0 4.0 22 44
r 1.5492 2 3 cbr 1000 ------- 2 1.0 5.0 5 31
+ 1.5492 3 5 cbr 1000 ------- 2 1.0 5.0 5 31
- 1.5492 3 5 cbr 1000 ------- 2 1.0 5.0 5 31
- 1.5532 2 3 tcp 1040 ------- 1 0.0 4.0 17 37
r 1.554267 0 2 tcp 1040 ------- 1 0.0 4.0 21 43
+ 1.554267 2 3 tcp 1040 ------- 1 0.0 4.0 21 43
r 1.558427 0 2 tcp 1040 ------- 1 0.0 4.0 22 44
+ 1.558427 2 3 tcp 1040 ------- 1 0.0 4.0 22 44
+ 1.56 1 2 cbr 1000 ------- 2 1.0 5.0 7 45
- 1.56 1 2 cbr 1000 ------- 2 1.0 5.0 7 45
r 1.56648 4 3 ack 40 ------- 1 4.0 0.0 14 42
+ 1.56648 3 2 ack 40 ------- 1 4.0 0.0 14 42
- 1.56648 3 2 ack 40 ------- 1 4.0 0.0 14 42
r 1.568533 3 5 cbr 1000 ------- 2 1.0 5.0 4 27
r 1.574 1 2 cbr 1000 ------- 2 1.0 5.0 7 45
+ 1.574 2 3 cbr 1000 ------- 2 1.0 5.0 7 45
- 1.580933 2 3 tcp 1040 ------- 1 0.0 4.0 18 38
r 1.584347 3 2 ack 40 ------- 1 4.0 0.0 11 32
+ 1.584347 2 0 ack 40 ------- 1 4.0 0.0 11 32
- 1.584347 2 0 ack 40 ------- 1 4.0 0.0 11 32
r 1.594507 2 0 ack 40 ------- 1 4.0 0.0 11 32
+ 1.594507 0 2 tcp 1040 ------- 1 0.0 4.0 23 46
- 1.594507 0 2 tcp 1040 ------- 1 0.0 4.0 23 46
+ 1.594507 0 2 tcp 1040 ------- 1 0.0 4.0 24 47
r 1.5952 3 5 cbr 1000 ------- 2 1.0 5.0 5 31
- 1.598667 0 2 tcp 1040 ------- 1 0.0 4.0 24 47
r 1.5988 2 3 tcp 1040 ------- 1 0.0 4.0 15 33
+ 1.5988 3 4 tcp 1040 ------- 1 0.0 4.0 15 33
- 1.5988 3 4 tcp 1040 ------- 1 0.0 4.0 15 33
- 1.608667 2 3 tcp 1040 ------- 1 0.0 4.0 19 40
r 1.608667 0 2 tcp 1040 ------- 1 0.0 4.0 23 46
+ 1.608667 2 3 tcp 1040 ------- 1 0.0 4.0 23 46
r 1.61208 3 2 ack 40 ------- 1 4.0 0.0 12 35
+ 1.61208 2 0 ack 40 ------- 1 4.0 0.0 12 35
- 1.61208 2 0 ack 40 ------- 1 4.0 0.0 12 35
r 1.612827 0 2 tcp 1040 ------- 1 0.0 4.0 24 47
+ 1.612827 2 3 tcp 1040 ------- 1 0.0 4.0 24 47
r 1.62224 2 0 ack 40 ------- 1 4.0 0.0 12 35
+ 1.62224 0 2 tcp 1040 ------- 1 0.0 4.0 25 48
- 1.62224 0 2 tcp 1040 ------- 1 0.0 4.0 25 48
+ 1.62224 0 2 tcp 1040 ------- 1 0.0 4.0 26 49
- 1.6264 0 2 tcp 1040 ------- 1 0.0 4.0 26 49
r 1.626533 2 3 tcp 1040 ------- 1 0.0 4.0 16 34
+ 1.626533 3 4 tcp 1040 ------- 1 0.0 4.0 16 34
- 1.626533 3 4 tcp 1040 ------- 1 0.0 4.0 16 34
- 1.6364 2 3 tcp 1040 ------- 1 0.0 4.0 20 41
r 1.6364 0 2 tcp 1040 ------- 1 0.0 4.0 25 48
+ 1.6364 2 3 tcp 1040 ------- 1 0.0 4.0 25 48
r 1.639813 3 2 ack 40 ------- 1 4.0 0.0 13 39
+ 1.639813 2 0 ack 40 ------- 1 4.0 0.0 13 39
- 1.639813 2 0 ack 40 ------- 1 4.0 0.0 13 39
+ 1.64 1 2 cbr 1000 ------- 2 1.0 5.0 8 50
- 1.64 1 2 cbr 1000 ------- 2 1.0 5.0 8 50
r 1.64056 0 2 tcp 1040 ------- 1 0.0 4.0 26 49
+ 1.64056 2 3 tcp 1040 ------- 1 0.0 4.0 26 49
r 1.649973 2 0 ack 40 ------- 1 4.0 0.0 13 39
+ 1.649973 0 2 tcp 1040 ------- 1 0.0 4.0 27 51
- 1.649973 0 2 tcp 1040 ------- 1 0.0 4.0 27 51
+ 1.649973 0 2 tcp 1040 ------- 1 0.0 4.0 28 52
r 1.6532 2 3 cbr 1000 ------- 2 1.0 5.0 6 36
+ 1.6532 3 5 cbr 1000 ------- 2 1.0 5.0 6 36
- 1.6532 3 5 cbr 1000 ------- 2 1.0 5.0 6 36
r 1.654 1 2 cbr 1000 ------- 2 1.0 5.0 8 50
+ 1.654 2 3 cbr 1000 ------- 2 1.0 5.0 8 50
- 1.654133 0 2 tcp 1040 ------- 1 0.0 4.0 28 52
r 1.65544 3 4 tcp 1040 ------- 1 0.0 4.0 15 33
+ 1.65544 4 3 ack 40 ------- 1 4.0 0.0 15 53
- 1.65544 4 3 ack 40 ------- 1 4.0 0.0 15 53
- 1.664133 2 3 tcp 1040 ------- 1 0.0 4.0 21 43
r 1.664133 0 2 tcp 1040 ------- 1 0.0 4.0 27 51
+ 1.664133 2 3 tcp 1040 ------- 1 0.0 4.0 27 51
r 1.667547 3 2 ack 40 ------- 1 4.0 0.0 14 42
+ 1.667547 2 0 ack 40 ------- 1 4.0 0.0 14 42
- 1.667547 2 0 ack 40 ------- 1 4.0 0.0 14 42
r 1.668293 0 2 tcp 1040 ------- 1 0.0 4.0 28 52
+ 1.668293 2 3 tcp 1040 ------- 1 0.0 4.0 28 52
r 1.677707 2 0 ack 40 ------- 1 4.0 0.0 14 42
+ 1.677707 0 2 tcp 1040 ------- 1 0.0 4.0 29 54
- 1.677707 0 2 tcp 1040 ------- 1 0.0 4.0 29 54
+ 1.677707 0 2 tcp 1040 ------- 1 0.0 4.0 30 55
r 1.680933 2 3 tcp 1040 ------- 1 0.0 4.0 17 37
+ 1.680933 3 4 tcp 1040 ------- 1 0.0 4.0 17 37
- 1.680933 3 4 tcp 1040 ------- 1 0.0 4.0 17 37
- 1.681867 0 2 tcp 1040 ------- 1 0.0 4.0 30 55
r 1.683173 3 4 tcp 1040 ------- 1 0.0 4.0 16 34
+ 1.683173 4 3 ack 40 ------- 1 4.0 0.0 16 56
- 1.683173 4 3 ack 40 ------- 1 4.0 0.0 16 56
- 1.691867 2 3 tcp 1040 ------- 1 0.0 4.0 22 44
r 1.691867 0 2 tcp 1040 ------- 1 0.0 4.0 29 54
+ 1.691867 2 3 tcp 1040 ------- 1 0.0 4.0 29 54
r 1.696027 0 2 tcp 1040 ------- 1 0.0 4.0 30 55
+ 1.696027 2 3 tcp 1040 ------- 1 0.0 4.0 30 55
r 1.69608 4 3 ack 40 ------- 1 4.0 0.0 15 53
+ 1.69608 3 2 ack 40 ------- 1 4.0 0.0 15 53
- 1.69608 3 2 ack 40 ------- 1 4.0 0.0 15 53
r 1.6992 3 5 cbr 1000 ------- 2 1.0 5.0 6 36
r 1.708667 2 3 tcp 1040 ------- 1 0.0 4.0 18 38
+ 1.708667 3 4 tcp 1040 ------- 1 0.0 4.0 18 38
- 1.708667 3 4 tcp 1040 ------- 1 0.0 4.0 18 38
- 1.7196 2 3 cbr 1000 ------- 2 1.0 5.0 7 45
+ 1.72 1 2 cbr 1000 ------- 2 1.0 5.0 9 57
- 1.72 1 2 cbr 1000 ------- 2 1.0 5.0 9 57
r 1.723813 4 3 ack 40 ------- 1 4.0 0.0 16 56
+ 1.723813 3 2 ack 40 ------- 1 4.0 0.0 16 56
- 1.723813 3 2 ack 40 ------- 1 4.0 0.0 16 56
r 1.734 1 2 cbr 1000 ------- 2 1.0 5.0 9 57
+ 1.734 2 3 cbr 1000 ------- 2 1.0 5.0 9 57
r 1.7364 2 3 tcp 1040 ------- 1 0.0 4.0 19 40
+ 1.7364 3 4 tcp 1040 ------- 1 0.0 4.0 19 40
- 1.7364 3 4 tcp 1040 ------- 1 0.0 4.0 19 40
r 1.737573 3 4 tcp 1040 ------- 1 0.0 4.0 17 37
+ 1.737573 4 3 ack 40 ------- 1 4.0 0.0 17 58
- 1.737573 4 3 ack 40 ------- 1 4.0 0.0 17 58
- 1.746267 2 3 tcp 1040 ------- 1 0.0 4.0 23 46
r 1.764133 2 3 tcp 1040 ------- 1 0.0 4.0 20 41
+ 1.764133 3 4 tcp 1040 ------- 1 0.0 4.0 20 41
- 1.764133 3 4 tcp 1040 ------- 1 0.0 4.0 20 41
r 1.765307 3 4 tcp 1040 ------- 1 0.0 4.0 18 38
+ 1.765307 4 3 ack 40 ------- 1 4.0 0.0 18 59
- 1.765307 4 3 ack 40 ------- 1 4.0 0.0 18 59
- 1.774 2 3 tcp 1040 ------- 1 0.0 4.0 24 47
r 1.778213 4 3 ack 40 ------- 1 4.0 0.0 17 58
+ 1.778213 3 2 ack 40 ------- 1 4.0 0.0 17 58
- 1.778213 3 2 ack 40 ------- 1 4.0 0.0 17 58
r 1.791867 2 3 tcp 1040 ------- 1 0.0 4.0 21 43
+ 1.791867 3 4 tcp 1040 ------- 1 0.0 4.0 21 43
- 1.791867 3 4 tcp 1040 ------- 1 0.0 4.0 21 43
r 1.79304 3 4 tcp 1040 ------- 1 0.0 4.0 19 40
+ 1.79304 4 3 ack 40 ------- 1 4.0 0.0 19 60
- 1.79304 4 3 ack 40 ------- 1 4.0 0.0 19 60
r 1.797147 3 2 ack 40 ------- 1 4.0 0.0 15 53
+ 1.797147 2 0 ack 40 ------- 1 4.0 0.0 15 53
- 1.797147 2 0 ack 40 ------- 1 4.0 0.0 15 53
+ 1.8 1 2 cbr 1000 ------- 2 1.0 5.0 10 61
- 1.8 1 2 cbr 1000 ------- 2 1.0 5.0 10 61
- 1.801733 2 3 tcp 1040 ------- 1 0.0 4.0 25 48
r 1.805947 4 3 ack 40 ------- 1 4.0 0.0 18 59
+ 1.805947 3 2 ack 40 ------- 1 4.0 0.0 18 59
- 1.805947 3 2 ack 40 ------- 1 4.0 0.0 18 59
r 1.807307 2 0 ack 40 ------- 1 4.0 0.0 15 53
+ 1.807307 0 2 tcp 1040 ------- 1 0.0 4.0 31 62
- 1.807307 0 2 tcp 1040 ------- 1 0.0 4.0 31 62
+ 1.807307 0 2 tcp 1040 ------- 1 0.0 4.0 32 63
- 1.811467 0 2 tcp 1040 ------- 1 0.0 4.0 32 63
r 1.814 1 2 cbr 1000 ------- 2 1.0 5.0 10 61
+ 1.814 2 3 cbr 1000 ------- 2 1.0 5.0 10 61
r 1.8196 2 3 tcp 1040 ------- 1 0.0 4.0 22 44
+ 1.8196 3 4 tcp 1040 ------- 1 0.0 4.0 22 44
- 1.8196 3 4 tcp 1040 ------- 1 0.0 4.0 22 44
r 1.820773 3 4 tcp 1040 ------- 1 0.0 4.0 20 41
+ 1.820773 4 3 ack 40 ------- 1 4.0 0.0 20 64
- 1.820773 4 3 ack 40 ------- 1 4.0 0.0 20 64
r 1.821467 0 2 tcp 1040 ------- 1 0.0 4.0 31 62
+ 1.821467 2 3 tcp 1040 ------- 1 0.0 4.0 31 62
r 1.82488 3 2 ack 40 ------- 1 4.0 0.0 16 56
+ 1.82488 2 0 ack 40 ------- 1 4.0 0.0 16 56
- 1.82488 2 0 ack 40 ------- 1 4.0 0.0 16 56
r 1.825627 0 2 tcp 1040 ------- 1 0.0 4.0 32 63
+ 1.825627 2 3 tcp 1040 ------- 1 0.0 4.0 32 63
- 1.829467 2 3 tcp 1040 ------- 1 0.0 4.0 26 49
r 1.83368 4 3 ack 40 ------- 1 4.0 0.0 19 60
+ 1.83368 3 2 ack 40 ------- 1 4.0 0.0 19 60
- 1.83368 3 2 ack 40 ------- 1 4.0 0.0 19 60
r 1.83504 2 0 ack 40 ------- 1 4.0 0.0 16 56
+ 1.83504 0 2 tcp 1040 ------- 1 0.0 4.0 33 65
- 1.83504 0 2 tcp 1040 ------- 1 0.0 4.0 33 65
+ 1.83504 0 2 tcp 1040 ------- 1 0.0 4.0 34 66
- 1.8392 0 2 tcp 1040 ------- 1 0.0 4.0 34 66
r 1.846267 2 3 cbr 1000 ------- 2 1.0 5.0 7 45
+ 1.846267 3 5 cbr 1000 ------- 2 1.0 5.0 7 45
- 1.846267 3 5 cbr 1000 ------- 2 1.0 5.0 7 45
r 1.848507 3 4 tcp 1040 ------- 1 0.0 4.0 21 43
+ 1.848507 4 3 ack 40 ------- 1 4.0 0.0 21 67
- 1.848507 4 3 ack 40 ------- 1 4.0 0.0 21 67
r 1.8492 0 2 tcp 1040 ------- 1 0.0 4.0 33 65
+ 1.8492 2 3 tcp 1040 ------- 1 0.0 4.0 33 65
r 1.85336 0 2 tcp 1040 ------- 1 0.0 4.0 34 66
+ 1.85336 2 3 tcp 1040 ------- 1 0.0 4.0 34 66
- 1.8572 2 3 cbr 1000 ------- 2 1.0 5.0 8 50
r 1.861413 4 3 ack 40 ------- 1 4.0 0.0 20 64
+ 1.861413 3 2 ack 40 ------- 1 4.0 0.0 20 64
- 1.861413 3 2 ack 40 ------- 1 4.0 0.0 20 64
r 1.874 2 3 tcp 1040 ------- 1 0.0 4.0 23 46
+ 1.874 3 4 tcp 1040 ------- 1 0.0 4.0 23 46
- 1.874 3 4 tcp 1040 ------- 1 0.0 4.0 23 46
r 1.87624 3 4 tcp 1040 ------- 1 0.0 4.0 22 44
+ 1.87624 4 3 ack 40 ------- 1 4.0 0.0 22 68
- 1.87624 4 3 ack 40 ------- 1 4.0 0.0 22 68
r 1.87928 3 2 ack 40 ------- 1 4.0 0.0 17 58
+ 1.87928 2 0 ack 40 ------- 1 4.0 0.0 17 58
- 1.87928 2 0 ack 40 ------- 1 4.0 0.0 17 58
+ 1.88 1 2 cbr 1000 ------- 2 1.0 5.0 11 69
- 1.88 1 2 cbr 1000 ------- 2 1.0 5.0 11 69
- 1.883867 2 3 tcp 1040 ------- 1 0.0 4.0 27 51
r 1.889147 4 3 ack 40 ------- 1 4.0 0.0 21 67
+ 1.889147 3 2 ack 40 ------- 1 4.0 0.0 21 67
- 1.889147 3 2 ack 40 ------- 1 4.0 0.0 21 67
r 1.88944 2 0 ack 40 ------- 1 4.0 0.0 17 58
+ 1.88944 0 2 tcp 1040 ------- 1 0.0 4.0 35 70
- 1.88944 0 2 tcp 1040 ------- 1 0.0 4.0 35 70
+ 1.88944 0 2 tcp 1040 ------- 1 0.0 4.0 36 71
r 1.892267 3 5 cbr 1000 ------- 2 1.0 5.0 7 45
- 1.8936 0 2 tcp 1040 ------- 1 0.0 4.0 36 71
r 1.894 1 2 cbr 1000 ------- 2 1.0 5.0 11 69
+ 1.894 2 3 cbr 1000 ------- 2 1.0 5.0 11 69
r 1.901733 2 3 tcp 1040 ------- 1 0.0 4.0 24 47
+ 1.901733 3 4 tcp 1040 ------- 1 0.0 4.0 24 47
- 1.901733 3 4 tcp 1040 ------- 1 0.0 4.0 24 47
r 1.9036 0 2 tcp 1040 ------- 1 0.0 4.0 35 70
+ 1.9036 2 3 tcp 1040 ------- 1 0.0 4.0 35 70
r 1.907013 3 2 ack 40 ------- 1 4.0 0.0 18 59
+ 1.907013 2 0 ack 40 ------- 1 4.0 0.0 18 59
- 1.907013 2 0 ack 40 ------- 1 4.0 0.0 18 59
r 1.90776 0 2 tcp 1040 ------- 1 0.0 4.0 36 71
+ 1.90776 2 3 tcp 1040 ------- 1 0.0 4.0 36 71
- 1.9116 2 3 tcp 1040 ------- 1 0.0 4.0 28 52
r 1.91688 4 3 ack 40 ------- 1 4.0 0.0 22 68
+ 1.91688 3 2 ack 40 ------- 1 4.0 0.0 22 68
- 1.91688 3 2 ack 40 ------- 1 4.0 0.0 22 68
r 1.917173 2 0 ack 40 ------- 1 4.0 0.0 18 59
+ 1.917173 0 2 tcp 1040 ------- 1 0.0 4.0 37 72
- 1.917173 0 2 tcp 1040 ------- 1 0.0 4.0 37 72
+ 1.917173 0 2 tcp 1040 ------- 1 0.0 4.0 38 73
- 1.921333 0 2 tcp 1040 ------- 1 0.0 4.0 38 73
r 1.929467 2 3 tcp 1040 ------- 1 0.0 4.0 25 48
+ 1.929467 3 4 tcp 1040 ------- 1 0.0 4.0 25 48
- 1.929467 3 4 tcp 1040 ------- 1 0.0 4.0 25 48
r 1.93064 3 4 tcp 1040 ------- 1 0.0 4.0 23 46
+ 1.93064 4 3 ack 40 ------- 1 4.0 0.0 23 74
- 1.93064 4 3 ack 40 ------- 1 4.0 0.0 23 74
r 1.931333 0 2 tcp 1040 ------- 1 0.0 4.0 37 72
+ 1.931333 2 3 tcp 1040 ------- 1 0.0 4.0 37 72
r 1.934747 3 2 ack 40 ------- 1 4.0 0.0 19 60
+ 1.934747 2 0 ack 40 ------- 1 4.0 0.0 19 60
- 1.934747 2 0 ack 40 ------- 1 4.0 0.0 19 60
r 1.935493 0 2 tcp 1040 ------- 1 0.0 4.0 38 73
+ 1.935493 2 3 tcp 1040 ------- 1 0.0 4.0 38 73
- 1.939333 2 3 tcp 1040 ------- 1 0.0 4.0 29 54
r 1.944907 2 0 ack 40 ------- 1 4.0 0.0 19 60
+ 1.944907 0 2 tcp 1040 ------- 1 0.0 4.0 39 75
- 1.944907 0 2 tcp 1040 ------- 1 0.0 4.0 39 75
r 1.9572 2 3 tcp 1040 ------- 1 0.0 4.0 26 49
+ 1.9572 3 4 tcp 1040 ------- 1 0.0 4.0 26 49
- 1.9572 3 4 tcp 1040 ------- 1 0.0 4.0 26 49
r 1.958373 3 4 tcp 1040 ------- 1 0.0 4.0 24 47
+ 1.958373 4 3 ack 40 ------- 1 4.0 0.0 24 76
- 1.958373 4 3 ack 40 ------- 1 4.0 0.0 24 76
r 1.959067 0 2 tcp 1040 ------- 1 0.0 4.0 39 75
+ 1.959067 2 3 tcp 1040 ------- 1 0.0 4.0 39 75
+ 1.96 1 2 cbr 1000 ------- 2 1.0 5.0 12 77
- 1.96 1 2 cbr 1000 ------- 2 1.0 5.0 12 77
r 1.96248 3 2 ack 40 ------- 1 4.0 0.0 20 64
+ 1.96248 2 0 ack 40 ------- 1 4.0 0.0 20 64
- 1.96248 2 0 ack 40 ------- 1 4.0 0.0 20 64
- 1.967067 2 3 tcp 1040 ------- 1 0.0 4.0 30 55
r 1.97128 4 3 ack 40 ------- 1 4.0 0.0 23 74
+ 1.97128 3 2 ack 40 ------- 1 4.0 0.0 23 74
- 1.97128 3 2 ack 40 ------- 1 4.0 0.0 23 74
r 1.97264 2 0 ack 40 ------- 1 4.0 0.0 20 64
+ 1.97264 0 2 tcp 1040 ------- 1 0.0 4.0 40 78
- 1.97264 0 2 tcp 1040 ------- 1 0.0 4.0 40 78
r 1.974 1 2 cbr 1000 ------- 2 1.0 5.0 12 77
+ 1.974 2 3 cbr 1000 ------- 2 1.0 5.0 12 77
r 1.983867 2 3 cbr 1000 ------- 2 1.0 5.0 8 50
+ 1.983867 3 5 cbr 1000 ------- 2 1.0 5.0 8 50
- 1.983867 3 5 cbr 1000 ------- 2 1.0 5.0 8 50
r 1.986107 3 4 tcp 1040 ------- 1 0.0 4.0 25 48
+ 1.986107 4 3 ack 40 ------- 1 4.0 0.0 25 79
- 1.986107 4 3 ack 40 ------- 1 4.0 0.0 25 79
r 1.9868 0 2 tcp 1040 ------- 1 0.0 4.0 40 78
+ 1.9868 2 3 tcp 1040 ------- 1 0.0 4.0 40 78
r 1.990213 3 2 ack 40 ------- 1 4.0 0.0 21 67
+ 1.990213 2 0 ack 40 ------- 1 4.0 0.0 21 67
- 1.990213 2 0 ack 40 ------- 1 4.0 0.0 21 67
- 1.9948 2 3 cbr 1000 ------- 2 1.0 5.0 9 57
r 1.999013 4 3 ack 40 ------- 1 4.0 0.0 24 76
+ 1.999013 3 2 ack 40 ------- 1 4.0 0.0 24 76
- 1.999013 3 2 ack 40 ------- 1 4.0 0.0 24 76
r 2.000373 2 0 ack 40 ------- 1 4.0 0.0 21 67
+ 2.000373 0 2 tcp 1040 ------- 1 0.0 4.0 41 80
- 2.000373 0 2 tcp 1040 ------- 1 0.0 4.0 41 80
r 2.0116 2 3 tcp 1040 ------- 1 0.0 4.0 27 51
+ 2.0116 3 4 tcp 1040 ------- 1 0.0 4.0 27 51
- 2.0116 3 4 tcp 1040 ------- 1 0.0 4.0 27 51
r 2.01384 3 4 tcp 1040 ------- 1 0.0 4.0 26 49
+ 2.01384 4 3 ack 40 ------- 1 4.0 0.0 26 81
- 2.01384 4 3 ack 40 ------- 1 4.0 0.0 26 81
r 2.014533 0 2 tcp 1040 ------- 1 0.0 4.0 41 80
+ 2.014533 2 3 tcp 1040 ------- 1 0.0 4.0 41 80
r 2.017947 3 2 ack 40 ------- 1 4.0 0.0 22 68
+ 2.017947 2 0 ack 40 ------- 1 4.0 0.0 22 68
- 2.017947 2 0 ack 40 ------- 1 4.0 0.0 22 68
- 2.021467 2 3 cbr 1000 ------- 2 1.0 5.0 10 61
r 2.026747 4 3 ack 40 ------- 1 4.0 0.0 25 79
+ 2.026747 3 2 ack 40 ------- 1 4.0 0.0 25 79
- 2.026747 3 2 ack 40 ------- 1 4.0 0.0 25 79
r 2.028107 2 0 ack 40 ------- 1 4.0 0.0 22 68
+ 2.028107 0 2 tcp 1040 ------- 1 0.0 4.0 42 82
- 2.028107 0 2 tcp 1040 ------- 1 0.0 4.0 42 82
r 2.029867 3 5 cbr 1000 ------- 2 1.0 5.0 8 50
r 2.039333 2 3 tcp 1040 ------- 1 0.0 4.0 28 52
+ 2.039333 3 4 tcp 1040 ------- 1 0.0 4.0 28 52
- 2.039333 3 4 tcp 1040 ------- 1 0.0 4.0 28 52
+ 2.04 1 2 cbr 1000 ------- 2 1.0 5.0 13 83
- 2.04 1 2 cbr 1000 ------- 2 1.0 5.0 13 83
r 2.042267 0 2 tcp 1040 ------- 1 0.0 4.0 42 82
+ 2.042267 2 3 tcp 1040 ------- 1 0.0 4.0 42 82
- 2.048133 2 3 tcp 1040 ------- 1 0.0 4.0 31 62
r 2.054 1 2 cbr 1000 ------- 2 1.0 5.0 13 83
+ 2.054 2 3 cbr 1000 ------- 2 1.0 5.0 13 83
r 2.05448 4 3 ack 40 ------- 1 4.0 0.0 26 81
+ 2.05448 3 2 ack 40 ------- 1 4.0 0.0 26 81
- 2.05448 3 2 ack 40 ------- 1 4.0 0.0 26 81
r 2.067067 2 3 tcp 1040 ------- 1 0.0 4.0 29 54
+ 2.067067 3 4 tcp 1040 ------- 1 0.0 4.0 29 54
- 2.067067 3 4 tcp 1040 ------- 1 0.0 4.0 29 54
r 2.06824 3 4 tcp 1040 ------- 1 0.0 4.0 27 51
+ 2.06824 4 3 ack 40 ------- 1 4.0 0.0 27 84