s -t 0.500000000 -Hs 1 -Hd -2 -Ni 1 -Nx 16.16 -Ny 95.98 -Nz 0.00 -Ne -1.000000 -Nl AGT -Nw --- -Ma 0 -Md 0 -Ms 0 -Mt 0 -Is 1.0 -Id 0.0 -It cbr -Il 512 -If 0 -Ii 0 -Iv 32 -Pn cbr -Pi 0 -Pf 0 -Po 0 
r -t 0.500000000 -Hs 1 -Hd -2 -Ni 1 -Nx 16.16 -Ny 95.98 -Nz 0.00 -Ne -1.000000 -Nl RTR -Nw --- -Ma 0 -Md 0 -Ms 0 -Mt 0 -Is 1.0 -Id 0.0 -It cbr -Il 512 -If 0 -Ii 0 -Iv 32 -Pn cbr -Pi 0 -Pf 0 -Po 0 
s -t 0.500000000 -Hs 2 -Hd -2 -Ni 2 -Nx 85.69 -Ny 44.58 -Nz 0.00 -Ne -1.000000 -Nl AGT -Nw --- -Ma 0 -Md 0 -Ms 0 -Mt 0 -Is 2.0 -Id 0.0 -It cbr -Il 512 -If 0 -Ii 1 -Iv 32 -Pn cbr -Pi 0 -Pf 0 -Po 0 
r -t 0.500000000 -Hs 2 -Hd -2 -Ni 2 -Nx 85.69 -Ny 44.58 -Nz 0.00 -Ne -1.000000 -Nl RTR -Nw --- -Ma 0 -Md 0 -Ms 0 -Mt 0 -Is 2.0 -Id 0.0 -It cbr -Il 512 -If 0 -Ii 1 -Iv 32 -Pn cbr -Pi 0 -Pf 0 -Po 0 
s -t 0.500000000 -Hs 3 -Hd -2 -Ni 3 -Nx 17.99 -Ny 8.52 -Nz 0.00 -Ne -1.000000 -Nl AGT -Nw --- -Ma 0 -Md 0 -Ms 0 -Mt 0 -Is 3.0 -Id 0.0 -It cbr -Il 512 -If 0 -Ii 2 -Iv 32 -Pn cbr -Pi 0 -Pf 0 -Po 0 
r -t 0.500000000 -Hs 3 -Hd -2 -Ni 3 -Nx 17.99 -Ny 8.52 -Nz 0.00 -Ne -1.000000 -Nl RTR -Nw --- -Ma 0 -Md 0 -Ms 0 -Mt 0 -Is 3.0 -Id 0.0 -It cbr -Il 512 -If 0 -Ii 2 -Iv 32 -Pn cbr -Pi 0 -Pf 0 -Po 0 
s -t 0.500000000 -Hs 4 -Hd -2 -Ni 4 -Nx 69.66 -Ny 96.35 -Nz 0.00 -Ne -1.000000 -Nl AGT -Nw --- -Ma 0 -Md 0 -Ms 0 -Mt 0 -Is 4.0 -Id 0.0 -It cbr -Il 512 -If 0 -Ii 3 -Iv 32 -Pn cbr -Pi 0 -Pf 0 -Po 0 
r -t 0.500000000 -Hs 4 -Hd -2 -Ni 4 -Nx 69.66 -Ny 96.35 -Nz 0.00 -Ne -1.000000 -Nl RTR -Nw --- -Ma 0 -Md 0 -Ms 0 -Mt 0 -Is 4.0 -Id 0.0 -It cbr -Il 512 -If 0 -Ii 3 -Iv 32 -Pn cbr -Pi 0 -Pf 0 -Po 0 
s -t 0.500000000 -Hs 5 -Hd -2 -Ni 5 -Nx 82.36 -Ny 45.88 -Nz 0.00 -Ne -1.000000 -Nl AGT -Nw --- -Ma 0 -Md 0 -Ms 0 -Mt 0 -Is 5.0 -Id 0.0 -It cbr -Il 512 -If 0 -Ii 4 -Iv 32 -Pn cbr -Pi 0 -Pf 0 -Po 0 
r -t 0.500000000 -Hs 5 -Hd -2 -Ni 5 -Nx 82.36 -Ny 45.88 -Nz 0.00 -Ne -1.000000 -Nl RTR -Nw --- -Ma 0 -Md 0 -Ms 0 -Mt 0 -Is 5.0 -Id 0.0 -It cbr -Il 512 -If 0 -Ii 4 -Iv 32 -Pn cbr -Pi 0 -Pf 0 -Po 0 
s -t 0.500000000 -Hs 6 -Hd -2 -Ni 6 -Nx 57.54 -Ny 37.56 -Nz 0.00 -Ne -1.000000 -Nl AGT -Nw --- -Ma 0 -Md 0 -Ms 0 -Mt 0 -Is 6.0 -Id 0.0 -It cbr -Il 512 -If 0 -Ii 5 -Iv 32 -Pn cbr -Pi 0 -Pf 0 -Po 0 
r -t 0.500000000 -Hs 6 -Hd -2 -Ni 6 -Nx 57.54 -Ny 37.56 -Nz 0.00 -Ne -1.000000 -Nl RTR -Nw --- -Ma 0 -Md 0 -Ms 0 -Mt 0 -Is 6.0 -Id 0.0 -It cbr -Il 512 -If 0 -Ii 5 -Iv 32 -Pn cbr -Pi 0 -Pf 0 -Po 0 
s -t 0.500000000 -Hs 7 -Hd -2 -Ni 7 -Nx 19.45 -Ny 33.88 -Nz 0.00 -Ne -1.000000 -Nl AGT -Nw --- -Ma 0 -Md 0 -Ms 0 -Mt 0 -Is 7.0 -Id 0.0 -It cbr -Il 512 -If 0 -Ii 6 -Iv 32 -Pn cbr -Pi 0 -Pf 0 -Po 0 
r -t 0.500000000 -Hs 7 -Hd -2 -Ni 7 -Nx 19.45 -Ny 33.88 -Nz 0.00 -Ne -1.000000 -Nl RTR -Nw --- -Ma 0 -Md 0 -Ms 0 -Mt 0 -Is 7.0 -Id 0.0 -It cbr -Il 512 -If 0 -Ii 6 -Iv 32 -Pn cbr -Pi 0 -Pf 0 -Po 0 
s -t 0.500000000 -Hs 8 -Hd -2 -Ni 8 -Nx 40.16 -Ny 38.38 -Nz 0.00 -Ne -1.000000 -Nl AGT -Nw --- -Ma 0 -Md 0 -Ms 0 -Mt 0 -Is 8.0 -Id 0.0 -It cbr -Il 512 -If 0 -Ii 7 -Iv 32 -Pn cbr -Pi 0 -Pf 0 -Po 0 
r -t 0.500000000 -Hs 8 -Hd -2 -Ni 8 -Nx 40.16 -Ny 38.38 -Nz 0.00 -Ne -1.000000 -Nl RTR -Nw --- -Ma 0 -Md 0 -Ms 0 -Mt 0 -Is 8.0 -Id 0.0 -It cbr -Il 512 -If 0 -Ii 7 -Iv 32 -Pn cbr -Pi 0 -Pf 0 -Po 0 
s -t 0.500000000 -Hs 9 -Hd -2 -Ni 9 -Nx 63.67 -Ny 68.22 -Nz 0.00 -Ne -1.000000 -Nl AGT -Nw --- -Ma 0 -Md 0 -Ms 0 -Mt 0 -Is 9.0 -Id 0.0 -It cbr -Il 512 -If 0 -Ii 8 -Iv 32 -Pn cbr -Pi 0 -Pf 0 -Po 0 
r -t 0.500000000 -Hs 9 -Hd -2 -Ni 9 -Nx 63.67 -Ny 68.22 -Nz 0.00 -Ne -1.000000 -Nl RTR -Nw --- -Ma 0 -Md 0 -Ms 0 -Mt 0 -Is 9.0 -Id 0.0 -It cbr -Il 512 -If 0 -Ii 8 -Iv 32 -Pn cbr -Pi 0 -Pf 0 -Po 0 
s -t 0.500000000 -Hs 1 -Hd -2 -Ni 1 -Nx 16.16 -Ny 95.98 -Nz 0.00 -Ne -1.000000 -Nl RTR -Nw --- -Ma 0 -Md 0 -Ms 0 -Mt 0 -Is 1.255 -Id -1.255 -It AODV -Il 48 -If 0 -Ii 0 -Iv 30 -P aodv -Pt 0x2 -Ph 1 -Pb 1 -Pd 0 -Pds 0 -Ps 1 -Pss 4 -Pc REQUEST 
s -t 0.500000000 -Hs 2 -Hd -2 -Ni 2 -Nx 85.69 -Ny 44.58 -Nz 0.00 -Ne -1.000000 -Nl RTR -Nw --- -Ma 0 -Md 0 -Ms 0 -Mt 0 -Is 2.255 -Id -1.255 -It AODV -Il 48 -If 0 -Ii 0 -Iv 30 -P aodv -Pt 0x2 -Ph 1 -Pb 1 -Pd 0 -Pds 0 -Ps 2 -Pss 4 -Pc REQUEST 
s -t 0.500000000 -Hs 3 -Hd -2 -Ni 3 -Nx 17.99 -Ny 8.52 -Nz 0.00 -Ne -1.000000 -Nl RTR -Nw --- -Ma 0 -Md 0 -Ms 0 -Mt 0 -Is 3.255 -Id -1.255 -It AODV -Il 48 -If 0 -Ii 0 -Iv 30 -P aodv -Pt 0x2 -Ph 1 -Pb 1 -Pd 0 -Pds 0 -Ps 3 -Pss 4 -Pc REQUEST 
s -t 0.500000000 -Hs 4 -Hd -2 -Ni 4 -Nx 69.66 -Ny 96.35 -Nz 0.00 -Ne -1.000000 -Nl RTR -Nw --- -Ma 0 -Md 0 -Ms 0 -Mt 0 -Is 4.255 -Id -1.255 -It AODV -Il 48 -If 0 -Ii 0 -Iv 30 -P aodv -Pt 0x2 -Ph 1 -Pb 1 -Pd 0 -Pds 0 -Ps 4 -Pss 4 -Pc REQUEST 
s -t 0.500000000 -Hs 5 -Hd -2 -Ni 5 -Nx 82.36 -Ny 45.88 -Nz 0.00 -Ne -1.000000 -Nl RTR -Nw --- -Ma 0 -Md 0 -Ms 0 -Mt 0 -Is 5.255 -Id -1.255 -It AODV -Il 48 -If 0 -Ii 0 -Iv 30 -P aodv -Pt 0x2 -Ph 1 -Pb 1 -Pd 0 -Pds 0 -Ps 5 -Pss 4 -Pc REQUEST 
s -t 0.500000000 -Hs 6 -Hd -2 -Ni 6 -Nx 57.54 -Ny 37.56 -Nz 0.00 -Ne -1.000000 -Nl RTR -Nw --- -Ma 0 -Md 0 -Ms 0 -Mt 0 -Is 6.255 -Id -1.255 -It AODV -Il 48 -If 0 -Ii 0 -Iv 30 -P aodv -Pt 0x2 -Ph 1 -Pb 1 -Pd 0 -Pds 0 -Ps 6 -Pss 4 -Pc REQUEST 
s -t 0.500000000 -Hs 7 -Hd -2 -Ni 7 -Nx 19.45 -Ny 33.88 -Nz 0.00 -Ne -1.000000 -Nl RTR -Nw --- -Ma 0 -Md 0 -Ms 0 -Mt 0 -Is 7.255 -Id -1.255 -It AODV -Il 48 -If 0 -Ii 0 -Iv 30 -P aodv -Pt 0x2 -Ph 1 -Pb 1 -Pd 0 -Pds 0 -Ps 7 -Pss 4 -Pc REQUEST 
s -t 0.500000000 -Hs 8 -Hd -2 -Ni 8 -Nx 40.16 -Ny 38.38 -Nz 0.00 -Ne -1.000000 -Nl RTR -Nw --- -Ma 0 -Md 0 -Ms 0 -Mt 0 -Is 8.255 -Id -1.255 -It AODV -Il 48 -If 0 -Ii 0 -Iv 30 -P aodv -Pt 0x2 -Ph 1 -Pb 1 -Pd 0 -Pds 0 -Ps 8 -Pss 4 -Pc REQUEST 
s -t 0.500000000 -Hs 9 -Hd -2 -Ni 9 -Nx 63.67 -Ny 68.22 -Nz 0.00 -Ne -1.000000 -Nl RTR -Nw --- -Ma 0 -Md 0 -Ms 0 -Mt 0 -Is 9.255 -Id -1.255 -It AODV -Il 48 -If 0 -Ii 0 -Iv 30 -P aodv -Pt 0x2 -Ph 1 -Pb 1 -Pd 0 -Pds 0 -Ps 9 -Pss 4 -Pc REQUEST 
r -t 0.500948058 -Hs 8 -Hd -2 -Ni 8 -Nx 40.16 -Ny 38.38 -Nz 0.00 -Ne -1.000000 -Nl RTR -Nw --- -Ma 0 -Md ffffffff -Ms 6 -Mt 800 -Is 6.255 -Id -1.255 -It AODV -Il 48 -If 0 -Ii 0 -Iv 30 -P aodv -Pt 0x2 -Ph 1 -Pb 1 -Pd 0 -Pds 0 -Ps 6 -Pss 4 -Pc REQUEST 
r -t 0.500948087 -Hs 5 -Hd -2 -Ni 5 -Nx 82.36 -Ny 45.88 -Nz 0.00 -Ne -1.000000 -Nl RTR -Nw --- -Ma 0 -Md ffffffff -Ms 6 -Mt 800 -Is 6.255 -Id -1.255 -It AODV -Il 48 -If 0 -Ii 0 -Iv 30 -P aodv -Pt 0x2 -Ph 1 -Pb 1 -Pd 0 -Pds 0 -Ps 6 -Pss 4 -Pc REQUEST 
r -t 0.500948097 -Hs 2 -Hd -2 -Ni 2 -Nx 85.69 -Ny 44.58 -Nz 0.00 -Ne -1.000000 -Nl RTR -Nw --- -Ma 0 -Md ffffffff -Ms 6 -Mt 800 -Is 6.255 -Id -1.255 -It AODV -Il 48 -If 0 -Ii 0 -Iv 30 -P aodv -Pt 0x2 -Ph 1 -Pb 1 -Pd 0 -Pds 0 -Ps 6 -Pss 4 -Pc REQUEST 
r -t 0.500948104 -Hs 9 -Hd -2 -Ni 9 -Nx 63.67 -Ny 68.22 -Nz 0.00 -Ne -1.000000 -Nl RTR -Nw --- -Ma 0 -Md ffffffff -Ms 6 -Mt 800 -Is 6.255 -Id -1.255 -It AODV -Il 48 -If 0 -Ii 0 -Iv 30 -P aodv -Pt 0x2 -Ph 1 -Pb 1 -Pd 0 -Pds 0 -Ps 6 -Pss 4 -Pc REQUEST 
r -t 0.500948128 -Hs 7 -Hd -2 -Ni 7 -Nx 19.45 -Ny 33.88 -Nz 0.00 -Ne -1.000000 -Nl RTR -Nw --- -Ma 0 -Md ffffffff -Ms 6 -Mt 800 -Is 6.255 -Id -1.255 -It AODV -Il 48 -If 0 -Ii 0 -Iv 30 -P aodv -Pt 0x2 -Ph 1 -Pb 1 -Pd 0 -Pds 0 -Ps 6 -Pss 4 -Pc REQUEST 
r -t 0.500948164 -Hs 3 -Hd -2 -Ni 3 -Nx 17.99 -Ny 8.52 -Nz 0.00 -Ne -1.000000 -Nl RTR -Nw --- -Ma 0 -Md ffffffff -Ms 6 -Mt 800 -Is 6.255 -Id -1.255 -It AODV -Il 48 -If 0 -Ii 0 -Iv 30 -P aodv -Pt 0x2 -Ph 1 -Pb 1 -Pd 0 -Pds 0 -Ps 6 -Pss 4 -Pc REQUEST 
r -t 0.500948167 -Hs 0 -Hd -2 -Ni 0 -Nx 17.34 -Ny 67.22 -Nz 0.00 -Ne -1.000000 -Nl RTR -Nw --- -Ma 0 -Md ffffffff -Ms 6 -Mt 800 -Is 6.255 -Id -1.255 -It AODV -Il 48 -If 0 -Ii 0 -Iv 30 -P aodv -Pt 0x2 -Ph 1 -Pb 1 -Pd 0 -Pds 0 -Ps 6 -Pss 4 -Pc REQUEST 
s -t 0.500948167 -Hs 0 -Hd 6 -Ni 0 -Nx 17.34 -Ny 67.22 -Nz 0.00 -Ne -1.000000 -Nl RTR -Nw --- -Ma 0 -Md 0 -Ms 0 -Mt 0 -Is 0.255 -Id 6.255 -It AODV -Il 44 -If 0 -Ii 0 -Iv 30 -P aodv -Pt 0x4 -Ph 1 -Pd 0 -Pds 4 -Pl 10.000000 -Pc REPLY 
r -t 0.500948200 -Hs 4 -Hd -2 -Ni 4 -Nx 69.66 -Ny 96.35 -Nz 0.00 -Ne -1.000000 -Nl RTR -Nw --- -Ma 0 -Md ffffffff -Ms 6 -Mt 800 -Is 6.255 -Id -1.255 -It AODV -Il 48 -If 0 -Ii 0 -Iv 30 -P aodv -Pt 0x2 -Ph 1 -Pb 1 -Pd 0 -Pds 0 -Ps 6 -Pss 4 -Pc REQUEST 
r -t 0.500948239 -Hs 1 -Hd -2 -Ni 1 -Nx 16.16 -Ny 95.98 -Nz 0.00 -Ne -1.000000 -Nl RTR -Nw --- -Ma 0 -Md ffffffff -Ms 6 -Mt 800 -Is 6.255 -Id -1.255 -It AODV -Il 48 -If 0 -Ii 0 -Iv 30 -P aodv -Pt 0x2 -Ph 1 -Pb 1 -Pd 0 -Pds 0 -Ps 6 -Pss 4 -Pc REQUEST 
s -t 0.501376050 -Hs 9 -Hd -2 -Ni 9 -Nx 63.67 -Ny 68.22 -Nz 0.00 -Ne -1.000000 -Nl RTR -Nw --- -Ma 0 -Md ffffffff -Ms 6 -Mt 800 -Is 9.255 -Id -1.255 -It AODV -Il 48 -If 0 -Ii 0 -Iv 29 -P aodv -Pt 0x2 -Ph 2 -Pb 1 -Pd 0 -Pds 0 -Ps 6 -Pss 4 -Pc REQUEST 
r -t 0.501886109 -Hs 5 -Hd -2 -Ni 5 -Nx 82.36 -Ny 45.88 -Nz 0.00 -Ne -1.000000 -Nl RTR -Nw --- -Ma 0 -Md ffffffff -Ms 2 -Mt 800 -Is 2.255 -Id -1.255 -It AODV -Il 48 -If 0 -Ii 0 -Iv 30 -P aodv -Pt 0x2 -Ph 1 -Pb 1 -Pd 0 -Pds 0 -Ps 2 -Pss 4 -Pc REQUEST 
r -t 0.501886193 -Hs 6 -Hd -2 -Ni 6 -Nx 57.54 -Ny 37.56 -Nz 0.00 -Ne -1.000000 -Nl RTR -Nw --- -Ma 0 -Md ffffffff -Ms 2 -Mt 800 -Is 2.255 -Id -1.255 -It AODV -Il 48 -If 0 -Ii 0 -Iv 30 -P aodv -Pt 0x2 -Ph 1 -Pb 1 -Pd 0 -Pds 0 -Ps 2 -Pss 4 -Pc REQUEST 
r -t 0.501886204 -Hs 9 -Hd -2 -Ni 9 -Nx 63.67 -Ny 68.22 -Nz 0.00 -Ne -1.000000 -Nl RTR -Nw --- -Ma 0 -Md ffffffff -Ms 2 -Mt 800 -Is 2.255 -Id -1.255 -It AODV -Il 48 -If 0 -Ii 0 -Iv 30 -P aodv -Pt 0x2 -Ph 1 -Pb 1 -Pd 0 -Pds 0 -Ps 2 -Pss 4 -Pc REQUEST 
r -t 0.501886250 -Hs 8 -Hd -2 -Ni 8 -Nx 40.16 -Ny 38.38 -Nz 0.00 -Ne -1.000000 -Nl RTR -Nw --- -Ma 0 -Md ffffffff -Ms 2 -Mt 800 -Is 2.255 -Id -1.255 -It AODV -Il 48 -If 0 -Ii 0 -Iv 30 -P aodv -Pt 0x2 -Ph 1 -Pb 1 -Pd 0 -Pds 0 -Ps 2 -Pss 4 -Pc REQUEST 
r -t 0.501886277 -Hs 4 -Hd -2 -Ni 4 -Nx 69.66 -Ny 96.35 -Nz 0.00 -Ne -1.000000 -Nl RTR -Nw --- -Ma 0 -Md ffffffff -Ms 2 -Mt 800 -Is 2.255 -Id -1.255 -It AODV -Il 48 -If 0 -Ii 0 -Iv 30 -P aodv -Pt 0x2 -Ph 1 -Pb 1 -Pd 0 -Pds 0 -Ps 2 -Pss 4 -Pc REQUEST 
r -t 0.501886320 -Hs 7 -Hd -2 -Ni 7 -Nx 19.45 -Ny 33.88 -Nz 0.00 -Ne -1.000000 -Nl RTR -Nw --- -Ma 0 -Md ffffffff -Ms 2 -Mt 800 -Is 2.255 -Id -1.255 -It AODV -Il 48 -If 0 -Ii 0 -Iv 30 -P aodv -Pt 0x2 -Ph 1 -Pb 1 -Pd 0 -Pds 0 -Ps 2 -Pss 4 -Pc REQUEST 
r -t 0.501886337 -Hs 0 -Hd -2 -Ni 0 -Nx 17.34 -Ny 67.22 -Nz 0.00 -Ne -1.000000 -Nl RTR -Nw --- -Ma 0 -Md ffffffff -Ms 2 -Mt 800 -Is 2.255 -Id -1.255 -It AODV -Il 48 -If 0 -Ii 0 -Iv 30 -P aodv -Pt 0x2 -Ph 1 -Pb 1 -Pd 0 -Pds 0 -Ps 2 -Pss 4 -Pc REQUEST 
s -t 0.501886337 -Hs 0 -Hd 2 -Ni 0 -Nx 17.34 -Ny 67.22 -Nz 0.00 -Ne -1.000000 -Nl RTR -Nw --- -Ma 0 -Md 0 -Ms 0 -Mt 0 -Is 0.255 -Id 2.255 -It AODV -Il 44 -If 0 -Ii 0 -Iv 30 -P aodv -Pt 0x4 -Ph 1 -Pd 0 -Pds 6 -Pl 10.000000 -Pc REPLY 
r -t 0.501886352 -Hs 3 -Hd -2 -Ni 3 -Nx 17.99 -Ny 8.52 -Nz 0.00 -Ne -1.000000 -Nl RTR -Nw --- -Ma 0 -Md ffffffff -Ms 2 -Mt 800 -Is 2.255 -Id -1.255 -It AODV -Il 48 -If 0 -Ii 0 -Iv 30 -P aodv -Pt 0x2 -Ph 1 -Pb 1 -Pd 0 -Pds 0 -Ps 2 -Pss 4 -Pc REQUEST 
r -t 0.501886385 -Hs 1 -Hd -2 -Ni 1 -Nx 16.16 -Ny 95.98 -Nz 0.00 -Ne -1.000000 -Nl RTR -Nw --- -Ma 0 -Md ffffffff -Ms 2 -Mt 800 -Is 2.255 -Id -1.255 -It AODV -Il 48 -If 0 -Ii 0 -Iv 30 -P aodv -Pt 0x2 -Ph 1 -Pb 1 -Pd 0 -Pds 0 -Ps 2 -Pss 4 -Pc REQUEST 
s -t 0.502086246 -Hs 3 -Hd -2 -Ni 3 -Nx 17.99 -Ny 8.52 -Nz 0.00 -Ne -1.000000 -Nl RTR -Nw --- -Ma 0 -Md ffffffff -Ms 6 -Mt 800 -Is 3.255 -Id -1.255 -It AODV -Il 48 -If 0 -Ii 0 -Iv 29 -P aodv -Pt 0x2 -Ph 2 -Pb 1 -Pd 0 -Pds 0 -Ps 6 -Pss 4 -Pc REQUEST 
s -t 0.502589551 -Hs 2 -Hd -2 -Ni 2 -Nx 85.69 -Ny 44.58 -Nz 0.00 -Ne -1.000000 -Nl RTR -Nw --- -Ma 0 -Md ffffffff -Ms 6 -Mt 800 -Is 2.255 -Id -1.255 -It AODV -Il 48 -If 0 -Ii 0 -Iv 29 -P aodv -Pt 0x2 -Ph 2 -Pb 1 -Pd 0 -Pds 0 -Ps 6 -Pss 4 -Pc REQUEST 
r -t 0.502904391 -Hs 8 -Hd -2 -Ni 8 -Nx 40.16 -Ny 38.38 -Nz 0.00 -Ne -1.000000 -Nl RTR -Nw --- -Ma 0 -Md ffffffff -Ms 7 -Mt 800 -Is 7.255 -Id -1.255 -It AODV -Il 48 -If 0 -Ii 0 -Iv 30 -P aodv -Pt 0x2 -Ph 1 -Pb 1 -Pd 0 -Pds 0 -Ps 7 -Pss 4 -Pc REQUEST 
r -t 0.502904405 -Hs 3 -Hd -2 -Ni 3 -Nx 17.99 -Ny 8.52 -Nz 0.00 -Ne -1.000000 -Nl RTR -Nw --- -Ma 0 -Md ffffffff -Ms 7 -Mt 800 -Is 7.255 -Id -1.255 -It AODV -Il 48 -If 0 -Ii 0 -Iv 30 -P aodv -Pt 0x2 -Ph 1 -Pb 1 -Pd 0 -Pds 0 -Ps 7 -Pss 4 -Pc REQUEST 
r -t 0.502904432 -Hs 0 -Hd -2 -Ni 0 -Nx 17.34 -Ny 67.22 -Nz 0.00 -Ne -1.000000 -Nl RTR -Nw --- -Ma 0 -Md ffffffff -Ms 7 -Mt 800 -Is 7.255 -Id -1.255 -It AODV -Il 48 -If 0 -Ii 0 -Iv 30 -P aodv -Pt 0x2 -Ph 1 -Pb 1 -Pd 0 -Pds 0 -Ps 7 -Pss 4 -Pc REQUEST 
s -t 0.502904432 -Hs 0 -Hd 7 -Ni 0 -Nx 17.34 -Ny 67.22 -Nz 0.00 -Ne -1.000000 -Nl RTR -Nw --- -Ma 0 -Md 0 -Ms 0 -Mt 0 -Is 0.255 -Id 7.255 -It AODV -Il 44 -If 0 -Ii 0 -Iv 30 -P aodv -Pt 0x4 -Ph 1 -Pd 0 -Pds 8 -Pl 10.000000 -Pc REPLY 
r -t 0.502904448 -Hs 6 -Hd -2 -Ni 6 -Nx 57.54 -Ny 37.56 -Nz 0.00 -Ne -1.000000 -Nl RTR -Nw --- -Ma 0 -Md ffffffff -Ms 7 -Mt 800 -Is 7.255 -Id -1.255 -It AODV -Il 48 -If 0 -Ii 0 -Iv 30 -P aodv -Pt 0x2 -Ph 1 -Pb 1 -Pd 0 -Pds 0 -Ps 7 -Pss 4 -Pc REQUEST 
r -t 0.502904507 -Hs 9 -Hd -2 -Ni 9 -Nx 63.67 -Ny 68.22 -Nz 0.00 -Ne -1.000000 -Nl RTR -Nw --- -Ma 0 -Md ffffffff -Ms 7 -Mt 800 -Is 7.255 -Id -1.255 -It AODV -Il 48 -If 0 -Ii 0 -Iv 30 -P aodv -Pt 0x2 -Ph 1 -Pb 1 -Pd 0 -Pds 0 -Ps 7 -Pss 4 -Pc REQUEST 
r -t 0.502904528 -Hs 1 -Hd -2 -Ni 1 -Nx 16.16 -Ny 95.98 -Nz 0.00 -Ne -1.000000 -Nl RTR -Nw --- -Ma 0 -Md ffffffff -Ms 7 -Mt 800 -Is 7.255 -Id -1.255 -It AODV -Il 48 -If 0 -Ii 0 -Iv 30 -P aodv -Pt 0x2 -Ph 1 -Pb 1 -Pd 0 -Pds 0 -Ps 7 -Pss 4 -Pc REQUEST 
r -t 0.502904534 -Hs 5 -Hd -2 -Ni 5 -Nx 82.36 -Ny 45.88 -Nz 0.00 -Ne -1.000000 -Nl RTR -Nw --- -Ma 0 -Md ffffffff -Ms 7 -Mt 800 -Is 7.255 -Id -1.255 -It AODV -Il 48 -If 0 -Ii 0 -Iv 30 -P aodv -Pt 0x2 -Ph 1 -Pb 1 -Pd 0 -Pds 0 -Ps 7 -Pss 4 -Pc REQUEST 
r -t 0.502904544 -Hs 2 -Hd -2 -Ni 2 -Nx 85.69 -Ny 44.58 -Nz 0.00 -Ne -1.000000 -Nl RTR -Nw --- -Ma 0 -Md ffffffff -Ms 7 -Mt 800 -Is 7.255 -Id -1.255 -It AODV -Il 48 -If 0 -Ii 0 -Iv 30 -P aodv -Pt 0x2 -Ph 1 -Pb 1 -Pd 0 -Pds 0 -Ps 7 -Pss 4 -Pc REQUEST 
r -t 0.502904588 -Hs 4 -Hd -2 -Ni 4 -Nx 69.66 -Ny 96.35 -Nz 0.00 -Ne -1.000000 -Nl RTR -Nw --- -Ma 0 -Md ffffffff -Ms 7 -Mt 800 -Is 7.255 -Id -1.255 -It AODV -Il 48 -If 0 -Ii 0 -Iv 30 -P aodv -Pt 0x2 -Ph 1 -Pb 1 -Pd 0 -Pds 0 -Ps 7 -Pss 4 -Pc REQUEST 
r -t 0.503842449 -Hs 6 -Hd -2 -Ni 6 -Nx 57.54 -Ny 37.56 -Nz 0.00 -Ne -1.000000 -Nl RTR -Nw --- -Ma 0 -Md ffffffff -Ms 8 -Mt 800 -Is 8.255 -Id -1.255 -It AODV -Il 48 -If 0 -Ii 0 -Iv 30 -P aodv -Pt 0x2 -Ph 1 -Pb 1 -Pd 0 -Pds 0 -Ps 8 -Pss 4 -Pc REQUEST 
r -t 0.503842462 -Hs 7 -Hd -2 -Ni 7 -Nx 19.45 -Ny 33.88 -Nz 0.00 -Ne -1.000000 -Nl RTR -Nw --- -Ma 0 -Md ffffffff -Ms 8 -Mt 800 -Is 8.255 -Id -1.255 -It AODV -Il 48 -If 0 -Ii 0 -Iv 30 -P aodv -Pt 0x2 -Ph 1 -Pb 1 -Pd 0 -Pds 0 -Ps 8 -Pss 4 -Pc REQUEST 
r -t 0.503842514 -Hs 0 -Hd -2 -Ni 0 -Nx 17.34 -Ny 67.22 -Nz 0.00 -Ne -1.000000 -Nl RTR -Nw --- -Ma 0 -Md ffffffff -Ms 8 -Mt 800 -Is 8.255 -Id -1.255 -It AODV -Il 48 -If 0 -Ii 0 -Iv 30 -P aodv -Pt 0x2 -Ph 1 -Pb 1 -Pd 0 -Pds 0 -Ps 8 -Pss 4 -Pc REQUEST 
s -t 0.503842514 -Hs 0 -Hd 8 -Ni 0 -Nx 17.34 -Ny 67.22 -Nz 0.00 -Ne -1.000000 -Nl RTR -Nw --- -Ma 0 -Md 0 -Ms 0 -Mt 0 -Is 0.255 -Id 8.255 -It AODV -Il 44 -If 0 -Ii 0 -Iv 30 -P aodv -Pt 0x4 -Ph 1 -Pd 0 -Pds 10 -Pl 10.000000 -Pc REPLY 
r -t 0.503842515 -Hs 3 -Hd -2 -Ni 3 -Nx 17.99 -Ny 8.52 -Nz 0.00 -Ne -1.000000 -Nl RTR -Nw --- -Ma 0 -Md ffffffff -Ms 8 -Mt 800 -Is 8.255 -Id -1.255 -It AODV -Il 48 -If 0 -Ii 0 -Iv 30 -P aodv -Pt 0x2 -Ph 1 -Pb 1 -Pd 0 -Pds 0 -Ps 8 -Pss 4 -Pc REQUEST 
r -t 0.503842518 -Hs 9 -Hd -2 -Ni 9 -Nx 63.67 -Ny 68.22 -Nz 0.00 -Ne -1.000000 -Nl RTR -Nw --- -Ma 0 -Md ffffffff -Ms 8 -Mt 800 -Is 8.255 -Id -1.255 -It AODV -Il 48 -If 0 -Ii 0 -Iv 30 -P aodv -Pt 0x2 -Ph 1 -Pb 1 -Pd 0 -Pds 0 -Ps 8 -Pss 4 -Pc REQUEST 
r -t 0.503842534 -Hs 5 -Hd -2 -Ni 5 -Nx 82.36 -Ny 45.88 -Nz 0.00 -Ne -1.000000 -Nl RTR -Nw --- -Ma 0 -Md ffffffff -Ms 8 -Mt 800 -Is 8.255 -Id -1.255 -It AODV -Il 48 -If 0 -Ii 0 -Iv 30 -P aodv -Pt 0x2 -Ph 1 -Pb 1 -Pd 0 -Pds 0 -Ps 8 -Pss 4 -Pc REQUEST 
r -t 0.503842544 -Hs 2 -Hd -2 -Ni 2 -Nx 85.69 -Ny 44.58 -Nz 0.00 -Ne -1.000000 -Nl RTR -Nw --- -Ma 0 -Md ffffffff -Ms 8 -Mt 800 -Is 8.255 -Id -1.255 -It AODV -Il 48 -If 0 -Ii 0 -Iv 30 -P aodv -Pt 0x2 -Ph 1 -Pb 1 -Pd 0 -Pds 0 -Ps 8 -Pss 4 -Pc REQUEST 
r -t 0.503842599 -Hs 1 -Hd -2 -Ni 1 -Nx 16.16 -Ny 95.98 -Nz 0.00 -Ne -1.000000 -Nl RTR -Nw --- -Ma 0 -Md ffffffff -Ms 8 -Mt 800 -Is 8.255 -Id -1.255 -It AODV -Il 48 -If 0 -Ii 0 -Iv 30 -P aodv -Pt 0x2 -Ph 1 -Pb 1 -Pd 0 -Pds 0 -Ps 8 -Pss 4 -Pc REQUEST 
r -t 0.503842608 -Hs 4 -Hd -2 -Ni 4 -Nx 69.66 -Ny 96.35 -Nz 0.00 -Ne -1.000000 -Nl RTR -Nw --- -Ma 0 -Md ffffffff -Ms 8 -Mt 800 -Is 8.255 -Id -1.255 -It AODV -Il 48 -If 0 -Ii 0 -Iv 30 -P aodv -Pt 0x2 -Ph 1 -Pb 1 -Pd 0 -Pds 0 -Ps 8 -Pss 4 -Pc REQUEST 
s -t 0.503950682 -Hs 1 -Hd -2 -Ni 1 -Nx 16.16 -Ny 95.98 -Nz 0.00 -Ne -1.000000 -Nl RTR -Nw --- -Ma 0 -Md ffffffff -Ms 8 -Mt 800 -Is 1.255 -Id -1.255 -It AODV -Il 48 -If 0 -Ii 0 -Iv 29 -P aodv -Pt 0x2 -Ph 2 -Pb 1 -Pd 0 -Pds 0 -Ps 8 -Pss 4 -Pc REQUEST 
s -t 0.503996572 -Hs 4 -Hd -2 -Ni 4 -Nx 69.66 -Ny 96.35 -Nz 0.00 -Ne -1.000000 -Nl RTR -Nw --- -Ma 0 -Md ffffffff -Ms 7 -Mt 800 -Is 4.255 -Id -1.255 -It AODV -Il 48 -If 0 -Ii 0 -Iv 29 -P aodv -Pt 0x2 -Ph 2 -Pb 1 -Pd 0 -Pds 0 -Ps 7 -Pss 4 -Pc REQUEST 
s -t 0.504038849 -Hs 8 -Hd -2 -Ni 8 -Nx 40.16 -Ny 38.38 -Nz 0.00 -Ne -1.000000 -Nl RTR -Nw --- -Ma 0 -Md ffffffff -Ms 6 -Mt 800 -Is 8.255 -Id -1.255 -It AODV -Il 48 -If 0 -Ii 0 -Iv 29 -P aodv -Pt 0x2 -Ph 2 -Pb 1 -Pd 0 -Pds 0 -Ps 6 -Pss 4 -Pc REQUEST 
s -t 0.504426570 -Hs 2 -Hd -2 -Ni 2 -Nx 85.69 -Ny 44.58 -Nz 0.00 -Ne -1.000000 -Nl RTR -Nw --- -Ma 0 -Md ffffffff -Ms 8 -Mt 800 -Is 2.255 -Id -1.255 -It AODV -Il 48 -If 0 -Ii 0 -Iv 29 -P aodv -Pt 0x2 -Ph 2 -Pb 1 -Pd 0 -Pds 0 -Ps 8 -Pss 4 -Pc REQUEST 
s -t 0.504467084 -Hs 9 -Hd -2 -Ni 9 -Nx 63.67 -Ny 68.22 -Nz 0.00 -Ne -1.000000 -Nl RTR -Nw --- -Ma 0 -Md ffffffff -Ms 2 -Mt 800 -Is 9.255 -Id -1.255 -It AODV -Il 48 -If 0 -Ii 0 -Iv 29 -P aodv -Pt 0x2 -Ph 2 -Pb 1 -Pd 0 -Pds 0 -Ps 2 -Pss 4 -Pc REQUEST 
r -t 0.504780613 -Hs 4 -Hd -2 -Ni 4 -Nx 69.66 -Ny 96.35 -Nz 0.00 -Ne -1.000000 -Nl RTR -Nw --- -Ma 0 -Md ffffffff -Ms 9 -Mt 800 -Is 9.255 -Id -1.255 -It AODV -Il 48 -If 0 -Ii 0 -Iv 30 -P aodv -Pt 0x2 -Ph 1 -Pb 1 -Pd 0 -Pds 0 -Ps 9 -Pss 4 -Pc REQUEST 
r -t 0.504780615 -Hs 5 -Hd -2 -Ni 5 -Nx 82.36 -Ny 45.88 -Nz 0.00 -Ne -1.000000 -Nl RTR -Nw --- -Ma 0 -Md ffffffff -Ms 9 -Mt 800 -Is 9.255 -Id -1.255 -It AODV -Il 48 -If 0 -Ii 0 -Iv 30 -P aodv -Pt 0x2 -Ph 1 -Pb 1 -Pd 0 -Pds 0 -Ps 9 -Pss 4 -Pc REQUEST 
r -t 0.504780622 -Hs 6 -Hd -2 -Ni 6 -Nx 57.54 -Ny 37.56 -Nz 0.00 -Ne -1.000000 -Nl RTR -Nw --- -Ma 0 -Md ffffffff -Ms 9 -Mt 800 -Is 9.255 -Id -1.255 -It AODV -Il 48 -If 0 -Ii 0 -Iv 30 -P aodv -Pt 0x2 -Ph 1 -Pb 1 -Pd 0 -Pds 0 -Ps 9 -Pss 4 -Pc REQUEST 
r -t 0.504780625 -Hs 2 -Hd -2 -Ni 2 -Nx 85.69 -Ny 44.58 -Nz 0.00 -Ne -1.000000 -Nl RTR -Nw --- -Ma 0 -Md ffffffff -Ms 9 -Mt 800 -Is 9.255 -Id -1.255 -It AODV -Il 48 -If 0 -Ii 0 -Iv 30 -P aodv -Pt 0x2 -Ph 1 -Pb 1 -Pd 0 -Pds 0 -Ps 9 -Pss 4 -Pc REQUEST 
r -t 0.504780644 -Hs 8 -Hd -2 -Ni 8 -Nx 40.16 -Ny 38.38 -Nz 0.00 -Ne -1.000000 -Nl RTR -Nw --- -Ma 0 -Md ffffffff -Ms 9 -Mt 800 -Is 9.255 -Id -1.255 -It AODV -Il 48 -If 0 -Ii 0 -Iv 30 -P aodv -Pt 0x2 -Ph 1 -Pb 1 -Pd 0 -Pds 0 -Ps 9 -Pss 4 -Pc REQUEST 
r -t 0.504780672 -Hs 0 -Hd -2 -Ni 0 -Nx 17.34 -Ny 67.22 -Nz 0.00 -Ne -1.000000 -Nl RTR -Nw --- -Ma 0 -Md ffffffff -Ms 9 -Mt 800 -Is 9.255 -Id -1.255 -It AODV -Il 48 -If 0 -Ii 0 -Iv 30 -P aodv -Pt 0x2 -Ph 1 -Pb 1 -Pd 0 -Pds 0 -Ps 9 -Pss 4 -Pc REQUEST 
s -t 0.504780672 -Hs 0 -Hd 9 -Ni 0 -Nx 17.34 -Ny 67.22 -Nz 0.00 -Ne -1.000000 -Nl RTR -Nw --- -Ma 0 -Md 0 -Ms 0 -Mt 0 -Is 0.255 -Id 9.255 -It AODV -Il 44 -If 0 -Ii 0 -Iv 30 -P aodv -Pt 0x4 -Ph 1 -Pd 0 -Pds 12 -Pl 10.000000 -Pc REPLY 
r -t 0.504780701 -Hs 1 -Hd -2 -Ni 1 -Nx 16.16 -Ny 95.98 -Nz 0.00 -Ne -1.000000 -Nl RTR -Nw --- -Ma 0 -Md ffffffff -Ms 9 -Mt 800 -Is 9.255 -Id -1.255 -It AODV -Il 48 -If 0 -Ii 0 -Iv 30 -P aodv -Pt 0x2 -Ph 1 -Pb 1 -Pd 0 -Pds 0 -Ps 9 -Pss 4 -Pc REQUEST 
r -t 0.504780704 -Hs 7 -Hd -2 -Ni 7 -Nx 19.45 -Ny 33.88 -Nz 0.00 -Ne -1.000000 -Nl RTR -Nw --- -Ma 0 -Md ffffffff -Ms 9 -Mt 800 -Is 9.255 -Id -1.255 -It AODV -Il 48 -If 0 -Ii 0 -Iv 30 -P aodv -Pt 0x2 -Ph 1 -Pb 1 -Pd 0 -Pds 0 -Ps 9 -Pss 4 -Pc REQUEST 
r -t 0.504780768 -Hs 3 -Hd -2 -Ni 3 -Nx 17.99 -Ny 8.52 -Nz 0.00 -Ne -1.000000 -Nl RTR -Nw --- -Ma 0 -Md ffffffff -Ms 9 -Mt 800 -Is 9.255 -Id -1.255 -It AODV -Il 48 -If 0 -Ii 0 -Iv 30 -P aodv -Pt 0x2 -Ph 1 -Pb 1 -Pd 0 -Pds 0 -Ps 9 -Pss 4 -Pc REQUEST 
s -t 0.504962847 -Hs 5 -Hd -2 -Ni 5 -Nx 82.36 -Ny 45.88 -Nz 0.00 -Ne -1.000000 -Nl RTR -Nw --- -Ma 0 -Md ffffffff -Ms 8 -Mt 800 -Is 5.255 -Id -1.255 -It AODV -Il 48 -If 0 -Ii 0 -Iv 29 -P aodv -Pt 0x2 -Ph 2 -Pb 1 -Pd 0 -Pds 0 -Ps 8 -Pss 4 -Pc REQUEST 
s -t 0.505075986 -Hs 8 -Hd -2 -Ni 8 -Nx 40.16 -Ny 38.38 -Nz 0.00 -Ne -1.000000 -Nl RTR -Nw --- -Ma 0 -Md ffffffff -Ms 7 -Mt 800 -Is 8.255 -Id -1.255 -It AODV -Il 48 -If 0 -Ii 0 -Iv 29 -P aodv -Pt 0x2 -Ph 2 -Pb 1 -Pd 0 -Pds 0 -Ps 7 -Pss 4 -Pc REQUEST 
s -t 0.505184806 -Hs 1 -Hd -2 -Ni 1 -Nx 16.16 -Ny 95.98 -Nz 0.00 -Ne -1.000000 -Nl RTR -Nw --- -Ma 0 -Md ffffffff -Ms 6 -Mt 800 -Is 1.255 -Id -1.255 -It AODV -Il 48 -If 0 -Ii 0 -Iv 29 -P aodv -Pt 0x2 -Ph 2 -Pb 1 -Pd 0 -Pds 0 -Ps 6 -Pss 4 -Pc REQUEST 
s -t 0.505316661 -Hs 3 -Hd -2 -Ni 3 -Nx 17.99 -Ny 8.52 -Nz 0.00 -Ne -1.000000 -Nl RTR -Nw --- -Ma 0 -Md ffffffff -Ms 7 -Mt 800 -Is 3.255 -Id -1.255 -It AODV -Il 48 -If 0 -Ii 0 -Iv 29 -P aodv -Pt 0x2 -Ph 2 -Pb 1 -Pd 0 -Pds 0 -Ps 7 -Pss 4 -Pc REQUEST 
s -t 0.505373604 -Hs 6 -Hd -2 -Ni 6 -Nx 57.54 -Ny 37.56 -Nz 0.00 -Ne -1.000000 -Nl RTR -Nw --- -Ma 0 -Md ffffffff -Ms 2 -Mt 800 -Is 6.255 -Id -1.255 -It AODV -Il 48 -If 0 -Ii 0 -Iv 29 -P aodv -Pt 0x2 -Ph 2 -Pb 1 -Pd 0 -Pds 0 -Ps 2 -Pss 4 -Pc REQUEST 
s -t 0.505716101 -Hs 6 -Hd -2 -Ni 6 -Nx 57.54 -Ny 37.56 -Nz 0.00 -Ne -1.000000 -Nl RTR -Nw --- -Ma 0 -Md ffffffff -Ms 8 -Mt 800 -Is 6.255 -Id -1.255 -It AODV -Il 48 -If 0 -Ii 0 -Iv 29 -P aodv -Pt 0x2 -Ph 2 -Pb 1 -Pd 0 -Pds 0 -Ps 8 -Pss 4 -Pc REQUEST 
r -t 0.505738709 -Hs 9 -Hd -2 -Ni 9 -Nx 63.67 -Ny 68.22 -Nz 0.00 -Ne -1.000000 -Nl RTR -Nw --- -Ma 0 -Md ffffffff -Ms 4 -Mt 800 -Is 4.255 -Id -1.255 -It AODV -Il 48 -If 0 -Ii 0 -Iv 30 -P aodv -Pt 0x2 -Ph 1 -Pb 1 -Pd 0 -Pds 0 -Ps 4 -Pss 4 -Pc REQUEST 
r -t 0.505738787 -Hs 5 -Hd -2 -Ni 5 -Nx 82.36 -Ny 45.88 -Nz 0.00 -Ne -1.000000 -Nl RTR -Nw --- -Ma 0 -Md ffffffff -Ms 4 -Mt 800 -Is 4.255 -Id -1.255 -It AODV -Il 48 -If 0 -Ii 0 -Iv 30 -P aodv -Pt 0x2 -Ph 1 -Pb 1 -Pd 0 -Pds 0 -Ps 4 -Pss 4 -Pc REQUEST 
r -t 0.505738792 -Hs 1 -Hd -2 -Ni 1 -Nx 16.16 -Ny 95.98 -Nz 0.00 -Ne -1.000000 -Nl RTR -Nw --- -Ma 0 -Md ffffffff -Ms 4 -Mt 800 -Is 4.255 -Id -1.255 -It AODV -Il 48 -If 0 -Ii 0 -Iv 30 -P aodv -Pt 0x2 -Ph 1 -Pb 1 -Pd 0 -Pds 0 -Ps 4 -Pss 4 -Pc REQUEST 
r -t 0.505738794 -Hs 2 -Hd -2 -Ni 2 -Nx 85.69 -Ny 44.58 -Nz 0.00 -Ne -1.000000 -Nl RTR -Nw --- -Ma 0 -Md ffffffff -Ms 4 -Mt 800 -Is 4.255 -Id -1.255 -It AODV -Il 48 -If 0 -Ii 0 -Iv 30 -P aodv -Pt 0x2 -Ph 1 -Pb 1 -Pd 0 -Pds 0 -Ps 4 -Pss 4 -Pc REQUEST 
r -t 0.505738813 -Hs 0 -Hd -2 -Ni 0 -Nx 17.34 -Ny 67.22 -Nz 0.00 -Ne -1.000000 -Nl RTR -Nw --- -Ma 0 -Md ffffffff -Ms 4 -Mt 800 -Is 4.255 -Id -1.255 -It AODV -Il 48 -If 0 -Ii 0 -Iv 30 -P aodv -Pt 0x2 -Ph 1 -Pb 1 -Pd 0 -Pds 0 -Ps 4 -Pss 4 -Pc REQUEST 
s -t 0.505738813 -Hs 0 -Hd 4 -Ni 0 -Nx 17.34 -Ny 67.22 -Nz 0.00 -Ne -1.000000 -Nl RTR -Nw --- -Ma 0 -Md 0 -Ms 0 -Mt 0 -Is 0.255 -Id 4.255 -It AODV -Il 44 -If 0 -Ii 0 -Iv 30 -P aodv -Pt 0x4 -Ph 1 -Pd 0 -Pds 14 -Pl 10.000000 -Pc REPLY 
r -t 0.505738814 -Hs 6 -Hd -2 -Ni 6 -Nx 57.54 -Ny 37.56 -Nz 0.00 -Ne -1.000000 -Nl RTR -Nw --- -Ma 0 -Md ffffffff -Ms 4 -Mt 800 -Is 4.255 -Id -1.255 -It AODV -Il 48 -If 0 -Ii 0 -Iv 30 -P aodv -Pt 0x2 -Ph 1 -Pb 1 -Pd 0 -Pds 0 -Ps 4 -Pss 4 -Pc REQUEST 
r -t 0.505738830 -Hs 8 -Hd -2 -Ni 8 -Nx 40.16 -Ny 38.38 -Nz 0.00 -Ne -1.000000 -Nl RTR -Nw --- -Ma 0 -Md ffffffff -Ms 4 -Mt 800 -Is 4.255 -Id -1.255 -It AODV -Il 48 -If 0 -Ii 0 -Iv 30 -P aodv -Pt 0x2 -Ph 1 -Pb 1 -Pd 0 -Pds 0 -Ps 4 -Pss 4 -Pc REQUEST 
r -t 0.505738881 -Hs 7 -Hd -2 -Ni 7 -Nx 19.45 -Ny 33.88 -Nz 0.00 -Ne -1.000000 -Nl RTR -Nw --- -Ma 0 -Md ffffffff -Ms 4 -Mt 800 -Is 4.255 -Id -1.255 -It AODV -Il 48 -If 0 -Ii 0 -Iv 30 -P aodv -Pt 0x2 -Ph 1 -Pb 1 -Pd 0 -Pds 0 -Ps 4 -Pss 4 -Pc REQUEST 
r -t 0.505738953 -Hs 3 -Hd -2 -Ni 3 -Nx 17.99 -Ny 8.52 -Nz 0.00 -Ne -1.000000 -Nl RTR -Nw --- -Ma 0 -Md ffffffff -Ms 4 -Mt 800 -Is 4.255 -Id -1.255 -It AODV -Il 48 -If 0 -Ii 0 -Iv 30 -P aodv -Pt 0x2 -Ph 1 -Pb 1 -Pd 0 -Pds 0 -Ps 4 -Pss 4 -Pc REQUEST 
s -t 0.505973107 -Hs 8 -Hd -2 -Ni 8 -Nx 40.16 -Ny 38.38 -Nz 0.00 -Ne -1.000000 -Nl RTR -Nw --- -Ma 0 -Md ffffffff -Ms 2 -Mt 800 -Is 8.255 -Id -1.255 -It AODV -Il 48 -If 0 -Ii 0 -Iv 29 -P aodv -Pt 0x2 -Ph 2 -Pb 1 -Pd 0 -Pds 0 -Ps 2 -Pss 4 -Pc REQUEST 
s -t 0.506011648 -Hs 4 -Hd -2 -Ni 4 -Nx 69.66 -Ny 96.35 -Nz 0.00 -Ne -1.000000 -Nl RTR -Nw --- -Ma 0 -Md ffffffff -Ms 9 -Mt 800 -Is 4.255 -Id -1.255 -It AODV -Il 48 -If 0 -Ii 0 -Iv 29 -P aodv -Pt 0x2 -Ph 2 -Pb 1 -Pd 0 -Pds 0 -Ps 9 -Pss 4 -Pc REQUEST 
s -t 0.506014284 -Hs 9 -Hd -2 -Ni 9 -Nx 63.67 -Ny 68.22 -Nz 0.00 -Ne -1.000000 -Nl RTR -Nw --- -Ma 0 -Md ffffffff -Ms 4 -Mt 800 -Is 9.255 -Id -1.255 -It AODV -Il 48 -If 0 -Ii 0 -Iv 29 -P aodv -Pt 0x2 -Ph 2 -Pb 1 -Pd 0 -Pds 0 -Ps 4 -Pss 4 -Pc REQUEST 
s -t 0.506547480 -Hs 7 -Hd -2 -Ni 7 -Nx 19.45 -Ny 33.88 -Nz 0.00 -Ne -1.000000 -Nl RTR -Nw --- -Ma 0 -Md ffffffff -Ms 2 -Mt 800 -Is 7.255 -Id -1.255 -It AODV -Il 48 -If 0 -Ii 0 -Iv 29 -P aodv -Pt 0x2 -Ph 2 -Pb 1 -Pd 0 -Pds 0 -Ps 2 -Pss 4 -Pc REQUEST 
r -t 0.506656799 -Hs 2 -Hd -2 -Ni 2 -Nx 85.69 -Ny 44.58 -Nz 0.00 -Ne -1.000000 -Nl RTR -Nw --- -Ma 0 -Md ffffffff -Ms 5 -Mt 800 -Is 5.255 -Id -1.255 -It AODV -Il 48 -If 0 -Ii 0 -Iv 30 -P aodv -Pt 0x2 -Ph 1 -Pb 1 -Pd 0 -Pds 0 -Ps 5 -Pss 4 -Pc REQUEST 
r -t 0.506656874 -Hs 6 -Hd -2 -Ni 6 -Nx 57.54 -Ny 37.56 -Nz 0.00 -Ne -1.000000 -Nl RTR -Nw --- -Ma 0 -Md ffffffff -Ms 5 -Mt 800 -Is 5.255 -Id -1.255 -It AODV -Il 48 -If 0 -Ii 0 -Iv 30 -P aodv -Pt 0x2 -Ph 1 -Pb 1 -Pd 0 -Pds 0 -Ps 5 -Pss 4 -Pc REQUEST 
r -t 0.506656884 -Hs 9 -Hd -2 -Ni 9 -Nx 63.67 -Ny 68.22 -Nz 0.00 -Ne -1.000000 -Nl RTR -Nw --- -Ma 0 -Md ffffffff -Ms 5 -Mt 800 -Is 5.255 -Id -1.255 -It AODV -Il 48 -If 0 -Ii 0 -Iv 30 -P aodv -Pt 0x2 -Ph 1 -Pb 1 -Pd 0 -Pds 0 -Ps 5 -Pss 4 -Pc REQUEST 
r -t 0.506656930 -Hs 8 -Hd -2 -Ni 8 -Nx 40.16 -Ny 38.38 -Nz 0.00 -Ne -1.000000 -Nl RTR -Nw --- -Ma 0 -Md ffffffff -Ms 5 -Mt 800 -Is 5.255 -Id -1.255 -It AODV -Il 48 -If 0 -Ii 0 -Iv 30 -P aodv -Pt 0x2 -Ph 1 -Pb 1 -Pd 0 -Pds 0 -Ps 5 -Pss 4 -Pc REQUEST 
r -t 0.506656960 -Hs 4 -Hd -2 -Ni 4 -Nx 69.66 -Ny 96.35 -Nz 0.00 -Ne -1.000000 -Nl RTR -Nw --- -Ma 0 -Md ffffffff -Ms 5 -Mt 800 -Is 5.255 -Id -1.255 -It AODV -Il 48 -If 0 -Ii 0 -Iv 30 -P aodv -Pt 0x2 -Ph 1 -Pb 1 -Pd 0 -Pds 0 -Ps 5 -Pss 4 -Pc REQUEST 
r -t 0.506657000 -Hs 7 -Hd -2 -Ni 7 -Nx 19.45 -Ny 33.88 -Nz 0.00 -Ne -1.000000 -Nl RTR -Nw --- -Ma 0 -Md ffffffff -Ms 5 -Mt 800 -Is 5.255 -Id -1.255 -It AODV -Il 48 -If 0 -Ii 0 -Iv 30 -P aodv -Pt 0x2 -Ph 1 -Pb 1 -Pd 0 -Pds 0 -Ps 5 -Pss 4 -Pc REQUEST 
r -t 0.506657015 -Hs 0 -Hd -2 -Ni 0 -Nx 17.34 -Ny 67.22 -Nz 0.00 -Ne -1.000000 -Nl RTR -Nw --- -Ma 0 -Md ffffffff -Ms 5 -Mt 800 -Is 5.255 -Id -1.255 -It AODV -Il 48 -If 0 -Ii 0 -Iv 30 -P aodv -Pt 0x2 -Ph 1 -Pb 1 -Pd 0 -Pds 0 -Ps 5 -Pss 4 -Pc REQUEST 
s -t 0.506657015 -Hs 0 -Hd 5 -Ni 0 -Nx 17.34 -Ny 67.22 -Nz 0.00 -Ne -1.000000 -Nl RTR -Nw --- -Ma 0 -Md 0 -Ms 0 -Mt 0 -Is 0.255 -Id 5.255 -It AODV -Il 44 -If 0 -Ii 0 -Iv 30 -P aodv -Pt 0x4 -Ph 1 -Pd 0 -Pds 16 -Pl 10.000000 -Pc REPLY 
r -t 0.506657035 -Hs 3 -Hd -2 -Ni 3 -Nx 17.99 -Ny 8.52 -Nz 0.00 -Ne -1.000000 -Nl RTR -Nw --- -Ma 0 -Md ffffffff -Ms 5 -Mt 800 -Is 5.255 -Id -1.255 -It AODV -Il 48 -If 0 -Ii 0 -Iv 30 -P aodv -Pt 0x2 -Ph 1 -Pb 1 -Pd 0 -Pds 0 -Ps 5 -Pss 4 -Pc REQUEST 
r -t 0.506657064 -Hs 1 -Hd -2 -Ni 1 -Nx 16.16 -Ny 95.98 -Nz 0.00 -Ne -1.000000 -Nl RTR -Nw --- -Ma 0 -Md ffffffff -Ms 5 -Mt 800 -Is 5.255 -Id -1.255 -It AODV -Il 48 -If 0 -Ii 0 -Iv 30 -P aodv -Pt 0x2 -Ph 1 -Pb 1 -Pd 0 -Pds 0 -Ps 5 -Pss 4 -Pc REQUEST 
s -t 0.506959735 -Hs 2 -Hd -2 -Ni 2 -Nx 85.69 -Ny 44.58 -Nz 0.00 -Ne -1.000000 -Nl RTR -Nw --- -Ma 0 -Md ffffffff -Ms 7 -Mt 800 -Is 2.255 -Id -1.255 -It AODV -Il 48 -If 0 -Ii 0 -Iv 29 -P aodv -Pt 0x2 -Ph 2 -Pb 1 -Pd 0 -Pds 0 -Ps 7 -Pss 4 -Pc REQUEST 
s -t 0.507072765 -Hs 4 -Hd -2 -Ni 4 -Nx 69.66 -Ny 96.35 -Nz 0.00 -Ne -1.000000 -Nl RTR -Nw --- -Ma 0 -Md ffffffff -Ms 2 -Mt 800 -Is 4.255 -Id -1.255 -It AODV -Il 48 -If 0 -Ii 0 -Iv 29 -P aodv -Pt 0x2 -Ph 2 -Pb 1 -Pd 0 -Pds 0 -Ps 2 -Pss 4 -Pc REQUEST 
s -t 0.507158264 -Hs 8 -Hd -2 -Ni 8 -Nx 40.16 -Ny 38.38 -Nz 0.00 -Ne -1.000000 -Nl RTR -Nw --- -Ma 0 -Md ffffffff -Ms 5 -Mt 800 -Is 8.255 -Id -1.255 -It AODV -Il 48 -If 0 -Ii 0 -Iv 29 -P aodv -Pt 0x2 -Ph 2 -Pb 1 -Pd 0 -Pds 0 -Ps 5 -Pss 4 -Pc REQUEST 
s -t 0.507348804 -Hs 7 -Hd -2 -Ni 7 -Nx 19.45 -Ny 33.88 -Nz 0.00 -Ne -1.000000 -Nl RTR -Nw --- -Ma 0 -Md ffffffff -Ms 6 -Mt 800 -Is 7.255 -Id -1.255 -It AODV -Il 48 -If 0 -Ii 0 -Iv 29 -P aodv -Pt 0x2 -Ph 2 -Pb 1 -Pd 0 -Pds 0 -Ps 6 -Pss 4 -Pc REQUEST 
s -t 0.507350559 -Hs 6 -Hd -2 -Ni 6 -Nx 57.54 -Ny 37.56 -Nz 0.00 -Ne -1.000000 -Nl RTR -Nw --- -Ma 0 -Md ffffffff -Ms 9 -Mt 800 -Is 6.255 -Id -1.255 -It AODV -Il 48 -If 0 -Ii 0 -Iv 29 -P aodv -Pt 0x2 -Ph 2 -Pb 1 -Pd 0 -Pds 0 -Ps 9 -Pss 4 -Pc REQUEST 
s -t 0.507398946 -Hs 7 -Hd -2 -Ni 7 -Nx 19.45 -Ny 33.88 -Nz 0.00 -Ne -1.000000 -Nl RTR -Nw --- -Ma 0 -Md ffffffff -Ms 9 -Mt 800 -Is 7.255 -Id -1.255 -It AODV -Il 48 -If 0 -Ii 0 -Iv 29 -P aodv -Pt 0x2 -Ph 2 -Pb 1 -Pd 0 -Pds 0 -Ps 9 -Pss 4 -Pc REQUEST 
s -t 0.507570443 -Hs 6 -Hd -2 -Ni 6 -Nx 57.54 -Ny 37.56 -Nz 0.00 -Ne -1.000000 -Nl RTR -Nw --- -Ma 0 -Md ffffffff -Ms 5 -Mt 800 -Is 6.255 -Id -1.255 -It AODV -Il 48 -If 0 -Ii 0 -Iv 29 -P aodv -Pt 0x2 -Ph 2 -Pb 1 -Pd 0 -Pds 0 -Ps 5 -Pss 4 -Pc REQUEST 
r -t 0.507594932 -Hs 8 -Hd -2 -Ni 8 -Nx 40.16 -Ny 38.38 -Nz 0.00 -Ne -1.000000 -Nl RTR -Nw --- -Ma 0 -Md ffffffff -Ms 6 -Mt 800 -Is 6.255 -Id -1.255 -It AODV -Il 48 -If 0 -Ii 0 -Iv 29 -P aodv -Pt 0x2 -Ph 2 -Pb 1 -Pd 0 -Pds 0 -Ps 2 -Pss 4 -Pc REQUEST 
r -t 0.507594962 -Hs 5 -Hd -2 -Ni 5 -Nx 82.36 -Ny 45.88 -Nz 0.00 -Ne -1.000000 -Nl RTR -Nw --- -Ma 0 -Md ffffffff -Ms 6 -Mt 800 -Is 6.255 -Id -1.255 -It AODV -Il 48 -If 0 -Ii 0 -Iv 29 -P aodv -Pt 0x2 -Ph 2 -Pb 1 -Pd 0 -Pds 0 -Ps 2 -Pss 4 -Pc REQUEST 