n -t * -s 0  -x 100 -y 100 -Z 0 -z 30  -v circle -c black
n -t * -s 1  -x 100 -y 200 -Z 0 -z 30  -v circle -c black
n -t * -s 2  -x 100 -y 300 -Z 0 -z 30  -v circle -c black
n -t * -s 3  -x 100 -y 400 -Z 0 -z 30  -v circle -c black
n -t * -s 4  -x 200 -y 100 -Z 0 -z 30  -v circle -c black
n -t * -s 5  -x 200 -y 200 -Z 0 -z 30  -v circle -c black
n -t * -s 6  -x 200 -y 300 -Z 0 -z 30  -v circle -c black
n -t * -s 7  -x 200 -y 400 -Z 0 -z 30  -v circle -c black
n -t * -s 8  -x 300 -y 200 -Z 0 -z 30  -v circle -c black
n -t * -s 9  -x 300 -y 300 -Z 0 -z 30  -v circle -c black
V -t * -v 1.0a5 -a 0
W -t * -x 500 -y 500
A -t * -n 1 -p 0 -o 0x7fffffff -c 30 -a 1
A -t * -h 1 -m 1073741823 -s 0
+ -t 0.036772557 -s 1 -d -1 -p message -e 32 -c 2 -a 0 -i 0 -k RTR 
- -t 0.036772557 -s 1 -d -1 -p message -e 32 -c 2 -a 0 -i 0 -k RTR
h -t 0.036772557 -s 1 -d -1 -p message -e 32 -c 2 -a 0 -i 0 -k RTR
r -t 0.038132890 -s 0 -d -1 -p message -e 32 -c 2 -a 0 -i 0 -k RTR
r -t 0.038132890 -s 2 -d -1 -p message -e 32 -c 2 -a 0 -i 0 -k RTR
r -t 0.038132890 -s 5 -d -1 -p message -e 32 -c 2 -a 0 -i 0 -k RTR
r -t 0.038133028 -s 4 -d -1 -p message -e 32 -c 2 -a 0 -i 0 -k RTR
r -t 0.038133028 -s 6 -d -1 -p message -e 32 -c 2 -a 0 -i 0 -k RTR
r -t 0.038133223 -s 3 -d -1 -p message -e 32 -c 2 -a 0 -i 0 -k RTR
r -t 0.038133223 -s 8 -d -1 -p message -e 32 -c 2 -a 0 -i 0 -k RTR
r -t 0.038133302 -s 7 -d -1 -p message -e 32 -c 2 -a 0 -i 0 -k RTR
r -t 0.038133302 -s 9 -d -1 -p message -e 32 -c 2 -a 0 -i 0 -k RTR
+ -t 0.177383425 -s 2 -d -1 -p message -e 32 -c 2 -a 0 -i 1 -k RTR 
- -t 0.177383425 -s 2 -d -1 -p message -e 32 -c 2 -a 0 -i 1 -k RTR
h -t 0.177383425 -s 2 -d -1 -p message -e 32 -c 2 -a 0 -i 1 -k RTR
r -t 0.178363758 -s 1 -d -1 -p message -e 32 -c 2 -a 0 -i 1 -k RTR
r -t 0.178363758 -s 3 -d -1 -p message -e 32 -c 2 -a 0 -i 1 -k RTR
r -t 0.178363758 -s 6 -d -1 -p message -e 32 -c 2 -a 0 -i 1 -k RTR
r -t 0.178363897 -s 5 -d -1 -p message -e 32 -c 2 -a 0 -i 1 -k RTR
r -t 0.178363897 -s 7 -d -1 -p message -e 32 -c 2 -a 0 -i 1 -k RTR
r -t 0.178364092 -s 0 -d -1 -p message -e 32 -c 2 -a 0 -i 1 -k RTR
r -t 0.178364092 -s 9 -d -1 -p message -e 32 -c 2 -a 0 -i 1 -k RTR
r -t 0.178364170 -s 4 -d -1 -p message -e 32 -c 2 -a 0 -i 1 -k RTR
r -t 0.178364170 -s 8 -d -1 -p message -e 32 -c 2 -a 0 -i 1 -k RTR
+ -t 0.470144892 -s 7 -d -1 -p message -e 32 -c 2 -a 0 -i 2 -k RTR 
- -t 0.470144892 -s 7 -d -1 -p message -e 32 -c 2 -a 0 -i 2 -k RTR
h -t 0.470144892 -s 7 -d -1 -p message -e 32 -c 2 -a 0 -i 2 -k RTR
r -t 0.471165226 -s 6 -d -1 -p message -e 32 -c 2 -a 0 -i 2 -k RTR
r -t 0.471165226 -s 3 -d -1 -p message -e 32 -c 2 -a 0 -i 2 -k RTR
r -t 0.471165364 -s 2 -d -1 -p message -e 32 -c 2 -a 0 -i 2 -k RTR
r -t 0.471165364 -s 9 -d -1 -p message -e 32 -c 2 -a 0 -i 2 -k RTR
r -t 0.471165559 -s 5 -d -1 -p message -e 32 -c 2 -a 0 -i 2 -k RTR
r -t 0.471165638 -s 1 -d -1 -p message -e 32 -c 2 -a 0 -i 2 -k RTR
r -t 0.471165638 -s 8 -d -1 -p message -e 32 -c 2 -a 0 -i 2 -k RTR
+ -t 0.622244972 -s 9 -d -1 -p message -e 32 -c 2 -a 0 -i 3 -k RTR 
- -t 0.622244972 -s 9 -d -1 -p message -e 32 -c 2 -a 0 -i 3 -k RTR
h -t 0.622244972 -s 9 -d -1 -p message -e 32 -c 2 -a 0 -i 3 -k RTR
r -t 0.623505306 -s 8 -d -1 -p message -e 32 -c 2 -a 0 -i 3 -k RTR
r -t 0.623505306 -s 6 -d -1 -p message -e 32 -c 2 -a 0 -i 3 -k RTR
r -t 0.623505444 -s 7 -d -1 -p message -e 32 -c 2 -a 0 -i 3 -k RTR
r -t 0.623505444 -s 5 -d -1 -p message -e 32 -c 2 -a 0 -i 3 -k RTR
r -t 0.623505639 -s 2 -d -1 -p message -e 32 -c 2 -a 0 -i 3 -k RTR
r -t 0.623505718 -s 4 -d -1 -p message -e 32 -c 2 -a 0 -i 3 -k RTR
r -t 0.623505718 -s 3 -d -1 -p message -e 32 -c 2 -a 0 -i 3 -k RTR
r -t 0.623505718 -s 1 -d -1 -p message -e 32 -c 2 -a 0 -i 3 -k RTR
+ -t 0.634544216 -s 5 -d -1 -p message -e 32 -c 2 -a 0 -i 4 -k RTR 
- -t 0.634544216 -s 5 -d -1 -p message -e 32 -c 2 -a 0 -i 4 -k RTR
h -t 0.634544216 -s 5 -d -1 -p message -e 32 -c 2 -a 0 -i 4 -k RTR
r -t 0.635904549 -s 4 -d -1 -p message -e 32 -c 2 -a 0 -i 4 -k RTR
r -t 0.635904549 -s 1 -d -1 -p message -e 32 -c 2 -a 0 -i 4 -k RTR
r -t 0.635904549 -s 6 -d -1 -p message -e 32 -c 2 -a 0 -i 4 -k RTR
r -t 0.635904549 -s 8 -d -1 -p message -e 32 -c 2 -a 0 -i 4 -k RTR
r -t 0.635904687 -s 2 -d -1 -p message -e 32 -c 2 -a 0 -i 4 -k RTR
r -t 0.635904687 -s 0 -d -1 -p message -e 32 -c 2 -a 0 -i 4 -k RTR
r -t 0.635904687 -s 9 -d -1 -p message -e 32 -c 2 -a 0 -i 4 -k RTR
r -t 0.635904883 -s 7 -d -1 -p message -e 32 -c 2 -a 0 -i 4 -k RTR
r -t 0.635904961 -s 3 -d -1 -p message -e 32 -c 2 -a 0 -i 4 -k RTR
+ -t 0.890857830 -s 3 -d -1 -p message -e 32 -c 2 -a 0 -i 5 -k RTR 
- -t 0.890857830 -s 3 -d -1 -p message -e 32 -c 2 -a 0 -i 5 -k RTR
h -t 0.890857830 -s 3 -d -1 -p message -e 32 -c 2 -a 0 -i 5 -k RTR
r -t 0.892038163 -s 2 -d -1 -p message -e 32 -c 2 -a 0 -i 5 -k RTR
r -t 0.892038163 -s 7 -d -1 -p message -e 32 -c 2 -a 0 -i 5 -k RTR
r -t 0.892038301 -s 6 -d -1 -p message -e 32 -c 2 -a 0 -i 5 -k RTR
r -t 0.892038496 -s 1 -d -1 -p message -e 32 -c 2 -a 0 -i 5 -k RTR
r -t 0.892038575 -s 5 -d -1 -p message -e 32 -c 2 -a 0 -i 5 -k RTR
r -t 0.892038575 -s 9 -d -1 -p message -e 32 -c 2 -a 0 -i 5 -k RTR
n -t 1.000000 -s 0 -x 100.000000 -y 100.000000 -U -3.535534 -V -3.535534 -T 27.718586
n -t 1.000000 -s 5 -x 200.000000 -y 200.000000 -U -3.535534 -V -3.535534 -T 55.437172
n -t 1.000000 -s 7 -x 200.000000 -y 400.000000 -U -2.208702 -V -4.485715 -T 87.834390
+ -t 1.000000000 -s 0 -d -1 -p tcp -e 40 -c 2 -a 0 -i 6 -k AGT 
- -t 1.000000000 -s 0 -d -1 -p tcp -e 40 -c 2 -a 0 -i 6 -k AGT
h -t 1.000000000 -s 0 -d -1 -p tcp -e 40 -c 2 -a 0 -i 6 -k AGT
+ -t 1.000000000 -s 0 -d 5 -p tcp -e 60 -c 2 -a 0 -i 6 -k RTR 
- -t 1.000000000 -s 0 -d 5 -p tcp -e 60 -c 2 -a 0 -i 6 -k RTR
h -t 1.000000000 -s 0 -d 5 -p tcp -e 60 -c 2 -a 0 -i 6 -k RTR
r -t 1.004534300 -s 5 -d 5 -p tcp -e 60 -c 2 -a 0 -i 6 -k AGT
+ -t 1.004534300 -s 5 -d -1 -p ack -e 40 -c 2 -a 0 -i 7 -k AGT 
- -t 1.004534300 -s 5 -d -1 -p ack -e 40 -c 2 -a 0 -i 7 -k AGT
h -t 1.004534300 -s 5 -d -1 -p ack -e 40 -c 2 -a 0 -i 7 -k AGT
+ -t 1.121224081 -s 0 -d -1 -p message -e 32 -c 2 -a 0 -i 8 -k RTR 
- -t 1.121224081 -s 0 -d -1 -p message -e 32 -c 2 -a 0 -i 8 -k RTR
h -t 1.121224081 -s 0 -d -1 -p message -e 32 -c 2 -a 0 -i 8 -k RTR
r -t 1.122624416 -s 1 -d -1 -p message -e 32 -c 2 -a 0 -i 8 -k RTR
r -t 1.122624416 -s 4 -d -1 -p message -e 32 -c 2 -a 0 -i 8 -k RTR
r -t 1.122624553 -s 5 -d -1 -p message -e 32 -c 2 -a 0 -i 8 -k RTR
+ -t 1.122624553 -s 5 -d 0 -p ack -e 80 -c 2 -a 0 -i 7 -k RTR 
- -t 1.122624553 -s 5 -d 0 -p ack -e 80 -c 2 -a 0 -i 7 -k RTR
h -t 1.122624553 -s 5 -d 0 -p ack -e 80 -c 2 -a 0 -i 7 -k RTR
r -t 1.122624750 -s 2 -d -1 -p message -e 32 -c 2 -a 0 -i 8 -k RTR
r -t 1.122624829 -s 6 -d -1 -p message -e 32 -c 2 -a 0 -i 8 -k RTR
r -t 1.122624829 -s 8 -d -1 -p message -e 32 -c 2 -a 0 -i 8 -k RTR
r -t 1.124625967 -s 0 -d 0 -p ack -e 80 -c 2 -a 0 -i 7 -k AGT
+ -t 1.124625967 -s 0 -d -1 -p tcp -e 1040 -c 2 -a 0 -i 9 -k AGT 
- -t 1.124625967 -s 0 -d -1 -p tcp -e 1040 -c 2 -a 0 -i 9 -k AGT
h -t 1.124625967 -s 0 -d -1 -p tcp -e 1040 -c 2 -a 0 -i 9 -k AGT
+ -t 1.124625967 -s 0 -d 5 -p tcp -e 1060 -c 2 -a 0 -i 9 -k RTR 
- -t 1.124625967 -s 0 -d 5 -p tcp -e 1060 -c 2 -a 0 -i 9 -k RTR
h -t 1.124625967 -s 0 -d 5 -p tcp -e 1060 -c 2 -a 0 -i 9 -k RTR
+ -t 1.124625967 -s 0 -d -1 -p tcp -e 1040 -c 2 -a 0 -i 10 -k AGT 
- -t 1.124625967 -s 0 -d -1 -p tcp -e 1040 -c 2 -a 0 -i 10 -k AGT
h -t 1.124625967 -s 0 -d -1 -p tcp -e 1040 -c 2 -a 0 -i 10 -k AGT
+ -t 1.124625967 -s 0 -d 5 -p tcp -e 1060 -c 2 -a 0 -i 10 -k RTR 
- -t 1.124625967 -s 0 -d 5 -p tcp -e 1060 -c 2 -a 0 -i 10 -k RTR
h -t 1.124625967 -s 0 -d 5 -p tcp -e 1060 -c 2 -a 0 -i 10 -k RTR
r -t 1.134951381 -s 5 -d 5 -p tcp -e 1060 -c 2 -a 0 -i 9 -k AGT
+ -t 1.134951381 -s 5 -d -1 -p ack -e 40 -c 2 -a 0 -i 11 -k AGT 
- -t 1.134951381 -s 5 -d -1 -p ack -e 40 -c 2 -a 0 -i 11 -k AGT
h -t 1.134951381 -s 5 -d -1 -p ack -e 40 -c 2 -a 0 -i 11 -k AGT
+ -t 1.134951381 -s 5 -d 0 -p ack -e 60 -c 2 -a 0 -i 11 -k RTR 
- -t 1.134951381 -s 5 -d 0 -p ack -e 60 -c 2 -a 0 -i 11 -k RTR
h -t 1.134951381 -s 5 -d 0 -p ack -e 60 -c 2 -a 0 -i 11 -k RTR
r -t 1.137116796 -s 0 -d 0 -p ack -e 60 -c 2 -a 0 -i 11 -k AGT
+ -t 1.137116796 -s 0 -d -1 -p tcp -e 1040 -c 2 -a 0 -i 12 -k AGT 
- -t 1.137116796 -s 0 -d -1 -p tcp -e 1040 -c 2 -a 0 -i 12 -k AGT
h -t 1.137116796 -s 0 -d -1 -p tcp -e 1040 -c 2 -a 0 -i 12 -k AGT
+ -t 1.137116796 -s 0 -d 5 -p tcp -e 1060 -c 2 -a 0 -i 12 -k RTR 
- -t 1.137116796 -s 0 -d 5 -p tcp -e 1060 -c 2 -a 0 -i 12 -k RTR
h -t 1.137116796 -s 0 -d 5 -p tcp -e 1060 -c 2 -a 0 -i 12 -k RTR
+ -t 1.137116796 -s 0 -d -1 -p tcp -e 1040 -c 2 -a 0 -i 13 -k AGT 
- -t 1.137116796 -s 0 -d -1 -p tcp -e 1040 -c 2 -a 0 -i 13 -k AGT
h -t 1.137116796 -s 0 -d -1 -p tcp -e 1040 -c 2 -a 0 -i 13 -k AGT
+ -t 1.137116796 -s 0 -d 5 -p tcp -e 1060 -c 2 -a 0 -i 13 -k RTR 
- -t 1.137116796 -s 0 -d 5 -p tcp -e 1060 -c 2 -a 0 -i 13 -k RTR
h -t 1.137116796 -s 0 -d 5 -p tcp -e 1060 -c 2 -a 0 -i 13 -k RTR
r -t 1.147222210 -s 5 -d 5 -p tcp -e 1060 -c 2 -a 0 -i 10 -k AGT
+ -t 1.147222210 -s 5 -d -1 -p ack -e 40 -c 2 -a 0 -i 14 -k AGT 
- -t 1.147222210 -s 5 -d -1 -p ack -e 40 -c 2 -a 0 -i 14 -k AGT
h -t 1.147222210 -s 5 -d -1 -p ack -e 40 -c 2 -a 0 -i 14 -k AGT
+ -t 1.147222210 -s 5 -d 0 -p ack -e 60 -c 2 -a 0 -i 14 -k RTR 
- -t 1.147222210 -s 5 -d 0 -p ack -e 60 -c 2 -a 0 -i 14 -k RTR
h -t 1.147222210 -s 5 -d 0 -p ack -e 60 -c 2 -a 0 -i 14 -k RTR
r -t 1.149287624 -s 0 -d 0 -p ack -e 60 -c 2 -a 0 -i 14 -k AGT
+ -t 1.149287624 -s 0 -d -1 -p tcp -e 1040 -c 2 -a 0 -i 15 -k AGT 
- -t 1.149287624 -s 0 -d -1 -p tcp -e 1040 -c 2 -a 0 -i 15 -k AGT
h -t 1.149287624 -s 0 -d -1 -p tcp -e 1040 -c 2 -a 0 -i 15 -k AGT
+ -t 1.149287624 -s 0 -d 5 -p tcp -e 1060 -c 2 -a 0 -i 15 -k RTR 
- -t 1.149287624 -s 0 -d 5 -p tcp -e 1060 -c 2 -a 0 -i 15 -k RTR
h -t 1.149287624 -s 0 -d 5 -p tcp -e 1060 -c 2 -a 0 -i 15 -k RTR
+ -t 1.149287624 -s 0 -d -1 -p tcp -e 1040 -c 2 -a 0 -i 16 -k AGT 
- -t 1.149287624 -s 0 -d -1 -p tcp -e 1040 -c 2 -a 0 -i 16 -k AGT
h -t 1.149287624 -s 0 -d -1 -p tcp -e 1040 -c 2 -a 0 -i 16 -k AGT
+ -t 1.149287624 -s 0 -d 5 -p tcp -e 1060 -c 2 -a 0 -i 16 -k RTR 
- -t 1.149287624 -s 0 -d 5 -p tcp -e 1060 -c 2 -a 0 -i 16 -k RTR
h -t 1.149287624 -s 0 -d 5 -p tcp -e 1060 -c 2 -a 0 -i 16 -k RTR
r -t 1.159493038 -s 5 -d 5 -p tcp -e 1060 -c 2 -a 0 -i 12 -k AGT
+ -t 1.159493038 -s 5 -d -1 -p ack -e 40 -c 2 -a 0 -i 17 -k AGT 
- -t 1.159493038 -s 5 -d -1 -p ack -e 40 -c 2 -a 0 -i 17 -k AGT
h -t 1.159493038 -s 5 -d -1 -p ack -e 40 -c 2 -a 0 -i 17 -k AGT
+ -t 1.159493038 -s 5 -d 0 -p ack -e 60 -c 2 -a 0 -i 17 -k RTR 
- -t 1.159493038 -s 5 -d 0 -p ack -e 60 -c 2 -a 0 -i 17 -k RTR
h -t 1.159493038 -s 5 -d 0 -p ack -e 60 -c 2 -a 0 -i 17 -k RTR
r -t 1.169478924 -s 5 -d 5 -p tcp -e 1060 -c 2 -a 0 -i 13 -k AGT
+ -t 1.169478924 -s 5 -d -1 -p ack -e 40 -c 2 -a 0 -i 18 -k AGT 
- -t 1.169478924 -s 5 -d -1 -p ack -e 40 -c 2 -a 0 -i 18 -k AGT
h -t 1.169478924 -s 5 -d -1 -p ack -e 40 -c 2 -a 0 -i 18 -k AGT
+ -t 1.169478924 -s 5 -d 0 -p ack -e 60 -c 2 -a 0 -i 18 -k RTR 
- -t 1.169478924 -s 5 -d 0 -p ack -e 60 -c 2 -a 0 -i 18 -k RTR
h -t 1.169478924 -s 5 -d 0 -p ack -e 60 -c 2 -a 0 -i 18 -k RTR
r -t 1.179684809 -s 5 -d 5 -p tcp -e 1060 -c 2 -a 0 -i 15 -k AGT
+ -t 1.179684809 -s 5 -d -1 -p ack -e 40 -c 2 -a 0 -i 19 -k AGT 
- -t 1.179684809 -s 5 -d -1 -p ack -e 40 -c 2 -a 0 -i 19 -k AGT
h -t 1.179684809 -s 5 -d -1 -p ack -e 40 -c 2 -a 0 -i 19 -k AGT
+ -t 1.179684809 -s 5 -d 0 -p ack -e 60 -c 2 -a 0 -i 19 -k RTR 
- -t 1.179684809 -s 5 -d 0 -p ack -e 60 -c 2 -a 0 -i 19 -k RTR
h -t 1.179684809 -s 5 -d 0 -p ack -e 60 -c 2 -a 0 -i 19 -k RTR
r -t 1.181730224 -s 0 -d 0 -p ack -e 60 -c 2 -a 0 -i 17 -k AGT
+ -t 1.181730224 -s 0 -d -1 -p tcp -e 1040 -c 2 -a 0 -i 20 -k AGT 
- -t 1.181730224 -s 0 -d -1 -p tcp -e 1040 -c 2 -a 0 -i 20 -k AGT
h -t 1.181730224 -s 0 -d -1 -p tcp -e 1040 -c 2 -a 0 -i 20 -k AGT
+ -t 1.181730224 -s 0 -d 5 -p tcp -e 1060 -c 2 -a 0 -i 20 -k RTR 
- -t 1.181730224 -s 0 -d 5 -p tcp -e 1060 -c 2 -a 0 -i 20 -k RTR
h -t 1.181730224 -s 0 -d 5 -p tcp -e 1060 -c 2 -a 0 -i 20 -k RTR
+ -t 1.181730224 -s 0 -d -1 -p tcp -e 1040 -c 2 -a 0 -i 21 -k AGT 
- -t 1.181730224 -s 0 -d -1 -p tcp -e 1040 -c 2 -a 0 -i 21 -k AGT
h -t 1.181730224 -s 0 -d -1 -p tcp -e 1040 -c 2 -a 0 -i 21 -k AGT
+ -t 1.181730224 -s 0 -d 5 -p tcp -e 1060 -c 2 -a 0 -i 21 -k RTR 
- -t 1.181730224 -s 0 -d 5 -p tcp -e 1060 -c 2 -a 0 -i 21 -k RTR
h -t 1.181730224 -s 0 -d 5 -p tcp -e 1060 -c 2 -a 0 -i 21 -k RTR
r -t 1.183876109 -s 0 -d 0 -p ack -e 60 -c 2 -a 0 -i 18 -k AGT
+ -t 1.183876109 -s 0 -d -1 -p tcp -e 1040 -c 2 -a 0 -i 22 -k AGT 
- -t 1.183876109 -s 0 -d -1 -p tcp -e 1040 -c 2 -a 0 -i 22 -k AGT
h -t 1.183876109 -s 0 -d -1 -p tcp -e 1040 -c 2 -a 0 -i 22 -k AGT
+ -t 1.183876109 -s 0 -d 5 -p tcp -e 1060 -c 2 -a 0 -i 22 -k RTR 
- -t 1.183876109 -s 0 -d 5 -p tcp -e 1060 -c 2 -a 0 -i 22 -k RTR
h -t 1.183876109 -s 0 -d 5 -p tcp -e 1060 -c 2 -a 0 -i 22 -k RTR
+ -t 1.183876109 -s 0 -d -1 -p tcp -e 1040 -c 2 -a 0 -i 23 -k AGT 
- -t 1.183876109 -s 0 -d -1 -p tcp -e 1040 -c 2 -a 0 -i 23 -k AGT
h -t 1.183876109 -s 0 -d -1 -p tcp -e 1040 -c 2 -a 0 -i 23 -k AGT
+ -t 1.183876109 -s 0 -d 5 -p tcp -e 1060 -c 2 -a 0 -i 23 -k RTR 
- -t 1.183876109 -s 0 -d 5 -p tcp -e 1060 -c 2 -a 0 -i 23 -k RTR
h -t 1.183876109 -s 0 -d 5 -p tcp -e 1060 -c 2 -a 0 -i 23 -k RTR
r -t 1.193981523 -s 5 -d 5 -p tcp -e 1060 -c 2 -a 0 -i 16 -k AGT
+ -t 1.193981523 -s 5 -d -1 -p ack -e 40 -c 2 -a 0 -i 24 -k AGT 
- -t 1.193981523 -s 5 -d -1 -p ack -e 40 -c 2 -a 0 -i 24 -k AGT
h -t 1.193981523 -s 5 -d -1 -p ack -e 40 -c 2 -a 0 -i 24 -k AGT
+ -t 1.193981523 -s 5 -d 0 -p ack -e 60 -c 2 -a 0 -i 24 -k RTR 
- -t 1.193981523 -s 5 -d 0 -p ack -e 60 -c 2 -a 0 -i 24 -k RTR
h -t 1.193981523 -s 5 -d 0 -p ack -e 60 -c 2 -a 0 -i 24 -k RTR
r -t 1.204047409 -s 5 -d 5 -p tcp -e 1060 -c 2 -a 0 -i 20 -k AGT
+ -t 1.204047409 -s 5 -d -1 -p ack -e 40 -c 2 -a 0 -i 25 -k AGT 
- -t 1.204047409 -s 5 -d -1 -p ack -e 40 -c 2 -a 0 -i 25 -k AGT
h -t 1.204047409 -s 5 -d -1 -p ack -e 40 -c 2 -a 0 -i 25 -k AGT
+ -t 1.204047409 -s 5 -d 0 -p ack -e 60 -c 2 -a 0 -i 25 -k RTR 
- -t 1.204047409 -s 5 -d 0 -p ack -e 60 -c 2 -a 0 -i 25 -k RTR
h -t 1.204047409 -s 5 -d 0 -p ack -e 60 -c 2 -a 0 -i 25 -k RTR
r -t 1.206072823 -s 0 -d 0 -p ack -e 60 -c 2 -a 0 -i 19 -k AGT
+ -t 1.206072823 -s 0 -d -1 -p tcp -e 1040 -c 2 -a 0 -i 26 -k AGT 
- -t 1.206072823 -s 0 -d -1 -p tcp -e 1040 -c 2 -a 0 -i 26 -k AGT
h -t 1.206072823 -s 0 -d -1 -p tcp -e 1040 -c 2 -a 0 -i 26 -k AGT
+ -t 1.206072823 -s 0 -d 5 -p tcp -e 1060 -c 2 -a 0 -i 26 -k RTR 
- -t 1.206072823 -s 0 -d 5 -p tcp -e 1060 -c 2 -a 0 -i 26 -k RTR
h -t 1.206072823 -s 0 -d 5 -p tcp -e 1060 -c 2 -a 0 -i 26 -k RTR
+ -t 1.206072823 -s 0 -d -1 -p tcp -e 1040 -c 2 -a 0 -i 27 -k AGT 
- -t 1.206072823 -s 0 -d -1 -p tcp -e 1040 -c 2 -a 0 -i 27 -k AGT
h -t 1.206072823 -s 0 -d -1 -p tcp -e 1040 -c 2 -a 0 -i 27 -k AGT
+ -t 1.206072823 -s 0 -d 5 -p tcp -e 1060 -c 2 -a 0 -i 27 -k RTR 
- -t 1.206072823 -s 0 -d 5 -p tcp -e 1060 -c 2 -a 0 -i 27 -k RTR
h -t 1.206072823 -s 0 -d 5 -p tcp -e 1060 -c 2 -a 0 -i 27 -k RTR
r -t 1.208058709 -s 0 -d 0 -p ack -e 60 -c 2 -a 0 -i 24 -k AGT
+ -t 1.208058709 -s 0 -d -1 -p tcp -e 1040 -c 2 -a 0 -i 28 -k AGT 
- -t 1.208058709 -s 0 -d -1 -p tcp -e 1040 -c 2 -a 0 -i 28 -k AGT
h -t 1.208058709 -s 0 -d -1 -p tcp -e 1040 -c 2 -a 0 -i 28 -k AGT
+ -t 1.208058709 -s 0 -d 5 -p tcp -e 1060 -c 2 -a 0 -i 28 -k RTR 
- -t 1.208058709 -s 0 -d 5 -p tcp -e 1060 -c 2 -a 0 -i 28 -k RTR
h -t 1.208058709 -s 0 -d 5 -p tcp -e 1060 -c 2 -a 0 -i 28 -k RTR
+ -t 1.208058709 -s 0 -d -1 -p tcp -e 1040 -c 2 -a 0 -i 29 -k AGT 
- -t 1.208058709 -s 0 -d -1 -p tcp -e 1040 -c 2 -a 0 -i 29 -k AGT
h -t 1.208058709 -s 0 -d -1 -p tcp -e 1040 -c 2 -a 0 -i 29 -k AGT
+ -t 1.208058709 -s 0 -d 5 -p tcp -e 1060 -c 2 -a 0 -i 29 -k RTR 
- -t 1.208058709 -s 0 -d 5 -p tcp -e 1060 -c 2 -a 0 -i 29 -k RTR
h -t 1.208058709 -s 0 -d 5 -p tcp -e 1060 -c 2 -a 0 -i 29 -k RTR
r -t 1.210284595 -s 0 -d 0 -p ack -e 60 -c 2 -a 0 -i 25 -k AGT
+ -t 1.210284595 -s 0 -d -1 -p tcp -e 1040 -c 2 -a 0 -i 30 -k AGT 
- -t 1.210284595 -s 0 -d -1 -p tcp -e 1040 -c 2 -a 0 -i 30 -k AGT
h -t 1.210284595 -s 0 -d -1 -p tcp -e 1040 -c 2 -a 0 -i 30 -k AGT
+ -t 1.210284595 -s 0 -d 5 -p tcp -e 1060 -c 2 -a 0 -i 30 -k RTR 
- -t 1.210284595 -s 0 -d 5 -p tcp -e 1060 -c 2 -a 0 -i 30 -k RTR
h -t 1.210284595 -s 0 -d 5 -p tcp -e 1060 -c 2 -a 0 -i 30 -k RTR
+ -t 1.210284595 -s 0 -d -1 -p tcp -e 1040 -c 2 -a 0 -i 31 -k AGT 
- -t 1.210284595 -s 0 -d -1 -p tcp -e 1040 -c 2 -a 0 -i 31 -k AGT
h -t 1.210284595 -s 0 -d -1 -p tcp -e 1040 -c 2 -a 0 -i 31 -k AGT
+ -t 1.210284595 -s 0 -d 5 -p tcp -e 1060 -c 2 -a 0 -i 31 -k RTR 
- -t 1.210284595 -s 0 -d 5 -p tcp -e 1060 -c 2 -a 0 -i 31 -k RTR
h -t 1.210284595 -s 0 -d 5 -p tcp -e 1060 -c 2 -a 0 -i 31 -k RTR
r -t 1.220310009 -s 5 -d 5 -p tcp -e 1060 -c 2 -a 0 -i 21 -k AGT
+ -t 1.220310009 -s 5 -d -1 -p ack -e 40 -c 2 -a 0 -i 32 -k AGT 
- -t 1.220310009 -s 5 -d -1 -p ack -e 40 -c 2 -a 0 -i 32 -k AGT
h -t 1.220310009 -s 5 -d -1 -p ack -e 40 -c 2 -a 0 -i 32 -k AGT
+ -t 1.220310009 -s 5 -d 0 -p ack -e 60 -c 2 -a 0 -i 32 -k RTR 
- -t 1.220310009 -s 5 -d 0 -p ack -e 60 -c 2 -a 0 -i 32 -k RTR
h -t 1.220310009 -s 5 -d 0 -p ack -e 60 -c 2 -a 0 -i 32 -k RTR
r -t 1.223982366 -s 0 -d 0 -p ack -e 60 -c 2 -a 0 -i 32 -k AGT
+ -t 1.223982366 -s 0 -d -1 -p tcp -e 1040 -c 2 -a 0 -i 33 -k AGT 
- -t 1.223982366 -s 0 -d -1 -p tcp -e 1040 -c 2 -a 0 -i 33 -k AGT
h -t 1.223982366 -s 0 -d -1 -p tcp -e 1040 -c 2 -a 0 -i 33 -k AGT
+ -t 1.223982366 -s 0 -d 5 -p tcp -e 1060 -c 2 -a 0 -i 33 -k RTR 
- -t 1.223982366 -s 0 -d 5 -p tcp -e 1060 -c 2 -a 0 -i 33 -k RTR
h -t 1.223982366 -s 0 -d 5 -p tcp -e 1060 -c 2 -a 0 -i 33 -k RTR
+ -t 1.223982366 -s 0 -d -1 -p tcp -e 1040 -c 2 -a 0 -i 34 -k AGT 
- -t 1.223982366 -s 0 -d -1 -p tcp -e 1040 -c 2 -a 0 -i 34 -k AGT
h -t 1.223982366 -s 0 -d -1 -p tcp -e 1040 -c 2 -a 0 -i 34 -k AGT
+ -t 1.223982366 -s 0 -d 5 -p tcp -e 1060 -c 2 -a 0 -i 34 -k RTR 
- -t 1.223982366 -s 0 -d 5 -p tcp -e 1060 -c 2 -a 0 -i 34 -k RTR
h -t 1.223982366 -s 0 -d 5 -p tcp -e 1060 -c 2 -a 0 -i 34 -k RTR
r -t 1.234127780 -s 5 -d 5 -p tcp -e 1060 -c 2 -a 0 -i 22 -k AGT
+ -t 1.234127780 -s 5 -d -1 -p ack -e 40 -c 2 -a 0 -i 35 -k AGT 
- -t 1.234127780 -s 5 -d -1 -p ack -e 40 -c 2 -a 0 -i 35 -k AGT
h -t 1.234127780 -s 5 -d -1 -p ack -e 40 -c 2 -a 0 -i 35 -k AGT
+ -t 1.234127780 -s 5 -d 0 -p ack -e 60 -c 2 -a 0 -i 35 -k RTR 
- -t 1.234127780 -s 5 -d 0 -p ack -e 60 -c 2 -a 0 -i 35 -k RTR
h -t 1.234127780 -s 5 -d 0 -p ack -e 60 -c 2 -a 0 -i 35 -k RTR
r -t 1.236213194 -s 0 -d 0 -p ack -e 60 -c 2 -a 0 -i 35 -k AGT
+ -t 1.236213194 -s 0 -d -1 -p tcp -e 1040 -c 2 -a 0 -i 36 -k AGT 
- -t 1.236213194 -s 0 -d -1 -p tcp -e 1040 -c 2 -a 0 -i 36 -k AGT
h -t 1.236213194 -s 0 -d -1 -p tcp -e 1040 -c 2 -a 0 -i 36 -k AGT
+ -t 1.236213194 -s 0 -d 5 -p tcp -e 1060 -c 2 -a 0 -i 36 -k RTR 
- -t 1.236213194 -s 0 -d 5 -p tcp -e 1060 -c 2 -a 0 -i 36 -k RTR
h -t 1.236213194 -s 0 -d 5 -p tcp -e 1060 -c 2 -a 0 -i 36 -k RTR
+ -t 1.236213194 -s 0 -d -1 -p tcp -e 1040 -c 2 -a 0 -i 37 -k AGT 
- -t 1.236213194 -s 0 -d -1 -p tcp -e 1040 -c 2 -a 0 -i 37 -k AGT
h -t 1.236213194 -s 0 -d -1 -p tcp -e 1040 -c 2 -a 0 -i 37 -k AGT
+ -t 1.236213194 -s 0 -d 5 -p tcp -e 1060 -c 2 -a 0 -i 37 -k RTR 
- -t 1.236213194 -s 0 -d 5 -p tcp -e 1060 -c 2 -a 0 -i 37 -k RTR
h -t 1.236213194 -s 0 -d 5 -p tcp -e 1060 -c 2 -a 0 -i 37 -k RTR
r -t 1.246238608 -s 5 -d 5 -p tcp -e 1060 -c 2 -a 0 -i 23 -k AGT
+ -t 1.246238608 -s 5 -d -1 -p ack -e 40 -c 2 -a 0 -i 38 -k AGT 
- -t 1.246238608 -s 5 -d -1 -p ack -e 40 -c 2 -a 0 -i 38 -k AGT
h -t 1.246238608 -s 5 -d -1 -p ack -e 40 -c 2 -a 0 -i 38 -k AGT
+ -t 1.246238608 -s 5 -d 0 -p ack -e 60 -c 2 -a 0 -i 38 -k RTR 
- -t 1.246238608 -s 5 -d 0 -p ack -e 60 -c 2 -a 0 -i 38 -k RTR
h -t 1.246238608 -s 5 -d 0 -p ack -e 60 -c 2 -a 0 -i 38 -k RTR
r -t 1.256264494 -s 5 -d 5 -p tcp -e 1060 -c 2 -a 0 -i 26 -k AGT
+ -t 1.256264494 -s 5 -d -1 -p ack -e 40 -c 2 -a 0 -i 39 -k AGT 
- -t 1.256264494 -s 5 -d -1 -p ack -e 40 -c 2 -a 0 -i 39 -k AGT
h -t 1.256264494 -s 5 -d -1 -p ack -e 40 -c 2 -a 0 -i 39 -k AGT
+ -t 1.256264494 -s 5 -d 0 -p ack -e 60 -c 2 -a 0 -i 39 -k RTR 
- -t 1.256264494 -s 5 -d 0 -p ack -e 60 -c 2 -a 0 -i 39 -k RTR
h -t 1.256264494 -s 5 -d 0 -p ack -e 60 -c 2 -a 0 -i 39 -k RTR
r -t 1.258489908 -s 0 -d 0 -p ack -e 60 -c 2 -a 0 -i 38 -k AGT
+ -t 1.258489908 -s 0 -d -1 -p tcp -e 1040 -c 2 -a 0 -i 40 -k AGT 
- -t 1.258489908 -s 0 -d -1 -p tcp -e 1040 -c 2 -a 0 -i 40 -k AGT
h -t 1.258489908 -s 0 -d -1 -p tcp -e 1040 -c 2 -a 0 -i 40 -k AGT
+ -t 1.258489908 -s 0 -d 5 -p tcp -e 1060 -c 2 -a 0 -i 40 -k RTR 
- -t 1.258489908 -s 0 -d 5 -p tcp -e 1060 -c 2 -a 0 -i 40 -k RTR
h -t 1.258489908 -s 0 -d 5 -p tcp -e 1060 -c 2 -a 0 -i 40 -k RTR
+ -t 1.258489908 -s 0 -d -1 -p tcp -e 1040 -c 2 -a 0 -i 41 -k AGT 
- -t 1.258489908 -s 0 -d -1 -p tcp -e 1040 -c 2 -a 0 -i 41 -k AGT
h -t 1.258489908 -s 0 -d -1 -p tcp -e 1040 -c 2 -a 0 -i 41 -k AGT
+ -t 1.258489908 -s 0 -d 5 -p tcp -e 1060 -c 2 -a 0 -i 41 -k RTR 
- -t 1.258489908 -s 0 -d 5 -p tcp -e 1060 -c 2 -a 0 -i 41 -k RTR
h -t 1.258489908 -s 0 -d 5 -p tcp -e 1060 -c 2 -a 0 -i 41 -k RTR
r -t 1.260595794 -s 0 -d 0 -p ack -e 60 -c 2 -a 0 -i 39 -k AGT
+ -t 1.260595794 -s 0 -d -1 -p tcp -e 1040 -c 2 -a 0 -i 42 -k AGT 
- -t 1.260595794 -s 0 -d -1 -p tcp -e 1040 -c 2 -a 0 -i 42 -k AGT
h -t 1.260595794 -s 0 -d -1 -p tcp -e 1040 -c 2 -a 0 -i 42 -k AGT
+ -t 1.260595794 -s 0 -d 5 -p tcp -e 1060 -c 2 -a 0 -i 42 -k RTR 
- -t 1.260595794 -s 0 -d 5 -p tcp -e 1060 -c 2 -a 0 -i 42 -k RTR
h -t 1.260595794 -s 0 -d 5 -p tcp -e 1060 -c 2 -a 0 -i 42 -k RTR
+ -t 1.260595794 -s 0 -d -1 -p tcp -e 1040 -c 2 -a 0 -i 43 -k AGT 
- -t 1.260595794 -s 0 -d -1 -p tcp -e 1040 -c 2 -a 0 -i 43 -k AGT
h -t 1.260595794 -s 0 -d -1 -p tcp -e 1040 -c 2 -a 0 -i 43 -k AGT
+ -t 1.260595794 -s 0 -d 5 -p tcp -e 1060 -c 2 -a 0 -i 43 -k RTR 
- -t 1.260595794 -s 0 -d 5 -p tcp -e 1060 -c 2 -a 0 -i 43 -k RTR
h -t 1.260595794 -s 0 -d 5 -p tcp -e 1060 -c 2 -a 0 -i 43 -k RTR
r -t 1.270701208 -s 5 -d 5 -p tcp -e 1060 -c 2 -a 0 -i 27 -k AGT
+ -t 1.270701208 -s 5 -d -1 -p ack -e 40 -c 2 -a 0 -i 44 -k AGT 
- -t 1.270701208 -s 5 -d -1 -p ack -e 40 -c 2 -a 0 -i 44 -k AGT
h -t 1.270701208 -s 5 -d -1 -p ack -e 40 -c 2 -a 0 -i 44 -k AGT
+ -t 1.270701208 -s 5 -d 0 -p ack -e 60 -c 2 -a 0 -i 44 -k RTR 
- -t 1.270701208 -s 5 -d 0 -p ack -e 60 -c 2 -a 0 -i 44 -k RTR
h -t 1.270701208 -s 5 -d 0 -p ack -e 60 -c 2 -a 0 -i 44 -k RTR
r -t 1.281633094 -s 5 -d 5 -p tcp -e 1060 -c 2 -a 0 -i 28 -k AGT
+ -t 1.281633094 -s 5 -d -1 -p ack -e 40 -c 2 -a 0 -i 46 -k AGT 
- -t 1.281633094 -s 5 -d -1 -p ack -e 40 -c 2 -a 0 -i 46 -k AGT
h -t 1.281633094 -s 5 -d -1 -p ack -e 40 -c 2 -a 0 -i 46 -k AGT
+ -t 1.281633094 -s 5 -d 0 -p ack -e 60 -c 2 -a 0 -i 46 -k RTR 
- -t 1.281633094 -s 5 -d 0 -p ack -e 60 -c 2 -a 0 -i 46 -k RTR
h -t 1.281633094 -s 5 -d 0 -p ack -e 60 -c 2 -a 0 -i 46 -k RTR
+ -t 1.285874288 -s 8 -d -1 -p message -e 32 -c 2 -a 0 -i 45 -k RTR 
- -t 1.285874288 -s 8 -d -1 -p message -e 32 -c 2 -a 0 -i 45 -k RTR
h -t 1.285874288 -s 8 -d -1 -p message -e 32 -c 2 -a 0 -i 45 -k RTR
r -t 1.291958979 -s 5 -d 5 -p tcp -e 1060 -c 2 -a 0 -i 29 -k AGT
+ -t 1.291958979 -s 5 -d -1 -p ack -e 40 -c 2 -a 0 -i 47 -k AGT 
- -t 1.291958979 -s 5 -d -1 -p ack -e 40 -c 2 -a 0 -i 47 -k AGT
h -t 1.291958979 -s 5 -d -1 -p ack -e 40 -c 2 -a 0 -i 47 -k AGT
+ -t 1.291958979 -s 5 -d 0 -p ack -e 60 -c 2 -a 0 -i 47 -k RTR 
- -t 1.291958979 -s 5 -d 0 -p ack -e 60 -c 2 -a 0 -i 47 -k RTR
h -t 1.291958979 -s 5 -d 0 -p ack -e 60 -c 2 -a 0 -i 47 -k RTR
r -t 1.302064865 -s 5 -d 5 -p tcp -e 1060 -c 2 -a 0 -i 30 -k AGT
+ -t 1.302064865 -s 5 -d -1 -p ack -e 40 -c 2 -a 0 -i 48 -k AGT 
- -t 1.302064865 -s 5 -d -1 -p ack -e 40 -c 2 -a 0 -i 48 -k AGT
h -t 1.302064865 -s 5 -d -1 -p ack -e 40 -c 2 -a 0 -i 48 -k AGT
+ -t 1.302064865 -s 5 -d 0 -p ack -e 60 -c 2 -a 0 -i 48 -k RTR 
- -t 1.302064865 -s 5 -d 0 -p ack -e 60 -c 2 -a 0 -i 48 -k RTR
h -t 1.302064865 -s 5 -d 0 -p ack -e 60 -c 2 -a 0 -i 48 -k RTR
r -t 1.312110751 -s 5 -d 5 -p tcp -e 1060 -c 2 -a 0 -i 31 -k AGT
+ -t 1.312110751 -s 5 -d -1 -p ack -e 40 -c 2 -a 0 -i 49 -k AGT 
- -t 1.312110751 -s 5 -d -1 -p ack -e 40 -c 2 -a 0 -i 49 -k AGT
h -t 1.312110751 -s 5 -d -1 -p ack -e 40 -c 2 -a 0 -i 49 -k AGT
+ -t 1.312110751 -s 5 -d 0 -p ack -e 60 -c 2 -a 0 -i 49 -k RTR 
- -t 1.312110751 -s 5 -d 0 -p ack -e 60 -c 2 -a 0 -i 49 -k RTR
h -t 1.312110751 -s 5 -d 0 -p ack -e 60 -c 2 -a 0 -i 49 -k RTR
r -t 1.314236165 -s 0 -d 0 -p ack -e 60 -c 2 -a 0 -i 44 -k AGT
+ -t 1.314236165 -s 0 -d -1 -p tcp -e 1040 -c 2 -a 0 -i 50 -k AGT 
- -t 1.314236165 -s 0 -d -1 -p tcp -e 1040 -c 2 -a 0 -i 50 -k AGT
h -t 1.314236165 -s 0 -d -1 -p tcp -e 1040 -c 2 -a 0 -i 50 -k AGT
+ -t 1.314236165 -s 0 -d 5 -p tcp -e 1060 -c 2 -a 0 -i 50 -k RTR 
- -t 1.314236165 -s 0 -d 5 -p tcp -e 1060 -c 2 -a 0 -i 50 -k RTR
h -t 1.314236165 -s 0 -d 5 -p tcp -e 1060 -c 2 -a 0 -i 50 -k RTR
+ -t 1.314236165 -s 0 -d -1 -p tcp -e 1040 -c 2 -a 0 -i 51 -k AGT 
- -t 1.314236165 -s 0 -d -1 -p tcp -e 1040 -c 2 -a 0 -i 51 -k AGT
h -t 1.314236165 -s 0 -d -1 -p tcp -e 1040 -c 2 -a 0 -i 51 -k AGT
+ -t 1.314236165 -s 0 -d 5 -p tcp -e 1060 -c 2 -a 0 -i 51 -k RTR 
- -t 1.314236165 -s 0 -d 5 -p tcp -e 1060 -c 2 -a 0 -i 51 -k RTR
h -t 1.314236165 -s 0 -d 5 -p tcp -e 1060 -c 2 -a 0 -i 51 -k RTR
r -t 1.316342050 -s 0 -d 0 -p ack -e 60 -c 2 -a 0 -i 46 -k AGT
+ -t 1.316342050 -s 0 -d -1 -p tcp -e 1040 -c 2 -a 0 -i 52 -k AGT 
- -t 1.316342050 -s 0 -d -1 -p tcp -e 1040 -c 2 -a 0 -i 52 -k AGT
h -t 1.316342050 -s 0 -d -1 -p tcp -e 1040 -c 2 -a 0 -i 52 -k AGT
+ -t 1.316342050 -s 0 -d 5 -p tcp -e 1060 -c 2 -a 0 -i 52 -k RTR 
- -t 1.316342050 -s 0 -d 5 -p tcp -e 1060 -c 2 -a 0 -i 52 -k RTR
h -t 1.316342050 -s 0 -d 5 -p tcp -e 1060 -c 2 -a 0 -i 52 -k RTR
+ -t 1.316342050 -s 0 -d -1 -p tcp -e 1040 -c 2 -a 0 -i 53 -k AGT 
- -t 1.316342050 -s 0 -d -1 -p tcp -e 1040 -c 2 -a 0 -i 53 -k AGT
h -t 1.316342050 -s 0 -d -1 -p tcp -e 1040 -c 2 -a 0 -i 53 -k AGT
+ -t 1.316342050 -s 0 -d 5 -p tcp -e 1060 -c 2 -a 0 -i 53 -k RTR 
- -t 1.316342050 -s 0 -d 5 -p tcp -e 1060 -c 2 -a 0 -i 53 -k RTR
h -t 1.316342050 -s 0 -d 5 -p tcp -e 1060 -c 2 -a 0 -i 53 -k RTR
r -t 1.317587134 -s 9 -d -1 -p message -e 32 -c 2 -a 0 -i 45 -k RTR
r -t 1.317587138 -s 5 -d -1 -p message -e 32 -c 2 -a 0 -i 45 -k RTR
r -t 1.317587272 -s 6 -d -1 -p message -e 32 -c 2 -a 0 -i 45 -k RTR
r -t 1.317587272 -s 4 -d -1 -p message -e 32 -c 2 -a 0 -i 45 -k RTR
r -t 1.317587467 -s 1 -d -1 -p message -e 32 -c 2 -a 0 -i 45 -k RTR
r -t 1.317587543 -s 7 -d -1 -p message -e 32 -c 2 -a 0 -i 45 -k RTR
r -t 1.317587546 -s 2 -d -1 -p message -e 32 -c 2 -a 0 -i 45 -k RTR
r -t 1.317587551 -s 0 -d -1 -p message -e 32 -c 2 -a 0 -i 45 -k RTR
r -t 1.327438965 -s 5 -d 5 -p tcp -e 1060 -c 2 -a 0 -i 33 -k AGT
+ -t 1.327438965 -s 5 -d -1 -p ack -e 40 -c 2 -a 0 -i 54 -k AGT 
- -t 1.327438965 -s 5 -d -1 -p ack -e 40 -c 2 -a 0 -i 54 -k AGT
h -t 1.327438965 -s 5 -d -1 -p ack -e 40 -c 2 -a 0 -i 54 -k AGT
+ -t 1.327438965 -s 5 -d 0 -p ack -e 60 -c 2 -a 0 -i 54 -k RTR 
- -t 1.327438965 -s 5 -d 0 -p ack -e 60 -c 2 -a 0 -i 54 -k RTR
h -t 1.327438965 -s 5 -d 0 -p ack -e 60 -c 2 -a 0 -i 54 -k RTR
r -t 1.329684380 -s 0 -d 0 -p ack -e 60 -c 2 -a 0 -i 47 -k AGT
+ -t 1.329684380 -s 0 -d -1 -p tcp -e 1040 -c 2 -a 0 -i 55 -k AGT 
- -t 1.329684380 -s 0 -d -1 -p tcp -e 1040 -c 2 -a 0 -i 55 -k AGT
h -t 1.329684380 -s 0 -d -1 -p tcp -e 1040 -c 2 -a 0 -i 55 -k AGT
+ -t 1.329684380 -s 0 -d 5 -p tcp -e 1060 -c 2 -a 0 -i 55 -k RTR 
- -t 1.329684380 -s 0 -d 5 -p tcp -e 1060 -c 2 -a 0 -i 55 -k RTR
h -t 1.329684380 -s 0 -d 5 -p tcp -e 1060 -c 2 -a 0 -i 55 -k RTR
+ -t 1.329684380 -s 0 -d -1 -p tcp -e 1040 -c 2 -a 0 -i 56 -k AGT 
- -t 1.329684380 -s 0 -d -1 -p tcp -e 1040 -c 2 -a 0 -i 56 -k AGT
h -t 1.329684380 -s 0 -d -1 -p tcp -e 1040 -c 2 -a 0 -i 56 -k AGT
+ -t 1.329684380 -s 0 -d 5 -p tcp -e 1060 -c 2 -a 0 -i 56 -k RTR 
- -t 1.329684380 -s 0 -d 5 -p tcp -e 1060 -c 2 -a 0 -i 56 -k RTR
h -t 1.329684380 -s 0 -d 5 -p tcp -e 1060 -c 2 -a 0 -i 56 -k RTR
r -t 1.333416265 -s 0 -d 0 -p ack -e 60 -c 2 -a 0 -i 48 -k AGT
+ -t 1.333416265 -s 0 -d -1 -p tcp -e 1040 -c 2 -a 0 -i 57 -k AGT 
- -t 1.333416265 -s 0 -d -1 -p tcp -e 1040 -c 2 -a 0 -i 57 -k AGT
h -t 1.333416265 -s 0 -d -1 -p tcp -e 1040 -c 2 -a 0 -i 57 -k AGT
+ -t 1.333416265 -s 0 -d 5 -p tcp -e 1060 -c 2 -a 0 -i 57 -k RTR 
- -t 1.333416265 -s 0 -d 5 -p tcp -e 1060 -c 2 -a 0 -i 57 -k RTR
h -t 1.333416265 -s 0 -d 5 -p tcp -e 1060 -c 2 -a 0 -i 57 -k RTR
+ -t 1.333416265 -s 0 -d -1 -p tcp -e 1040 -c 2 -a 0 -i 58 -k AGT 
- -t 1.333416265 -s 0 -d -1 -p tcp -e 1040 -c 2 -a 0 -i 58 -k AGT
h -t 1.333416265 -s 0 -d -1 -p tcp -e 1040 -c 2 -a 0 -i 58 -k AGT
+ -t 1.333416265 -s 0 -d 5 -p tcp -e 1060 -c 2 -a 0 -i 58 -k RTR 
- -t 1.333416265 -s 0 -d 5 -p tcp -e 1060 -c 2 -a 0 -i 58 -k RTR
h -t 1.333416265 -s 0 -d 5 -p tcp -e 1060 -c 2 -a 0 -i 58 -k RTR
r -t 1.335742151 -s 0 -d 0 -p ack -e 60 -c 2 -a 0 -i 49 -k AGT
+ -t 1.335742151 -s 0 -d -1 -p tcp -e 1040 -c 2 -a 0 -i 59 -k AGT 
- -t 1.335742151 -s 0 -d -1 -p tcp -e 1040 -c 2 -a 0 -i 59 -k AGT
h -t 1.335742151 -s 0 -d -1 -p tcp -e 1040 -c 2 -a 0 -i 59 -k AGT
+ -t 1.335742151 -s 0 -d 5 -p tcp -e 1060 -c 2 -a 0 -i 59 -k RTR 
- -t 1.335742151 -s 0 -d 5 -p tcp -e 1060 -c 2 -a 0 -i 59 -k RTR
h -t 1.335742151 -s 0 -d 5 -p tcp -e 1060 -c 2 -a 0 -i 59 -k RTR
+ -t 1.335742151 -s 0 -d -1 -p tcp -e 1040 -c 2 -a 0 -i 60 -k AGT 
- -t 1.335742151 -s 0 -d -1 -p tcp -e 1040 -c 2 -a 0 -i 60 -k AGT
h -t 1.335742151 -s 0 -d -1 -p tcp -e 1040 -c 2 -a 0 -i 60 -k AGT
+ -t 1.335742151 -s 0 -d 5 -p tcp -e 1060 -c 2 -a 0 -i 60 -k RTR 
- -t 1.335742151 -s 0 -d 5 -p tcp -e 1060 -c 2 -a 0 -i 60 -k RTR
h -t 1.335742151 -s 0 -d 5 -p tcp -e 1060 -c 2 -a 0 -i 60 -k RTR
r -t 1.337768036 -s 0 -d 0 -p ack -e 60 -c 2 -a 0 -i 54 -k AGT
+ -t 1.337768036 -s 0 -d -1 -p tcp -e 1040 -c 2 -a 0 -i 61 -k AGT 
- -t 1.337768036 -s 0 -d -1 -p tcp -e 1040 -c 2 -a 0 -i 61 -k AGT
h -t 1.337768036 -s 0 -d -1 -p tcp -e 1040 -c 2 -a 0 -i 61 -k AGT
+ -t 1.337768036 -s 0 -d 5 -p tcp -e 1060 -c 2 -a 0 -i 61 -k RTR 