s 0.036772557 _1_ RTR  --- 0 message 32 [0 0 0 0] ------- [1:255 -1:255 32 0] 
r 0.038132890 _0_ RTR  --- 0 message 32 [0 ffffffff 1 800] ------- [1:255 -1:255 32 0] 
r 0.038132890 _2_ RTR  --- 0 message 32 [0 ffffffff 1 800] ------- [1:255 -1:255 32 0] 
r 0.038132890 _5_ RTR  --- 0 message 32 [0 ffffffff 1 800] ------- [1:255 -1:255 32 0] 
r 0.038133028 _4_ RTR  --- 0 message 32 [0 ffffffff 1 800] ------- [1:255 -1:255 32 0] 
r 0.038133028 _6_ RTR  --- 0 message 32 [0 ffffffff 1 800] ------- [1:255 -1:255 32 0] 
r 0.038133223 _3_ RTR  --- 0 message 32 [0 ffffffff 1 800] ------- [1:255 -1:255 32 0] 
r 0.038133223 _8_ RTR  --- 0 message 32 [0 ffffffff 1 800] ------- [1:255 -1:255 32 0] 
r 0.038133302 _7_ RTR  --- 0 message 32 [0 ffffffff 1 800] ------- [1:255 -1:255 32 0] 
r 0.038133302 _9_ RTR  --- 0 message 32 [0 ffffffff 1 800] ------- [1:255 -1:255 32 0] 
s 0.177383425 _2_ RTR  --- 1 message 32 [0 0 0 0] ------- [2:255 -1:255 32 0] 
r 0.178363758 _1_ RTR  --- 1 message 32 [0 ffffffff 2 800] ------- [2:255 -1:255 32 0] 
r 0.178363758 _3_ RTR  --- 1 message 32 [0 ffffffff 2 800] ------- [2:255 -1:255 32 0] 
r 0.178363758 _6_ RTR  --- 1 message 32 [0 ffffffff 2 800] ------- [2:255 -1:255 32 0] 
r 0.178363897 _5_ RTR  --- 1 message 32 [0 ffffffff 2 800] ------- [2:255 -1:255 32 0] 
r 0.178363897 _7_ RTR  --- 1 message 32 [0 ffffffff 2 800] ------- [2:255 -1:255 32 0] 
r 0.178364092 _0_ RTR  --- 1 message 32 [0 ffffffff 2 800] ------- [2:255 -1:255 32 0] 
r 0.178364092 _9_ RTR  --- 1 message 32 [0 ffffffff 2 800] ------- [2:255 -1:255 32 0] 
r 0.178364170 _4_ RTR  --- 1 message 32 [0 ffffffff 2 800] ------- [2:255 -1:255 32 0] 
r 0.178364170 _8_ RTR  --- 1 message 32 [0 ffffffff 2 800] ------- [2:255 -1:255 32 0] 
s 0.470144892 _7_ RTR  --- 2 message 32 [0 0 0 0] ------- [7:255 -1:255 32 0] 
r 0.471165226 _6_ RTR  --- 2 message 32 [0 ffffffff 7 800] ------- [7:255 -1:255 32 0] 
r 0.471165226 _3_ RTR  --- 2 message 32 [0 ffffffff 7 800] ------- [7:255 -1:255 32 0] 
r 0.471165364 _2_ RTR  --- 2 message 32 [0 ffffffff 7 800] ------- [7:255 -1:255 32 0] 
r 0.471165364 _9_ RTR  --- 2 message 32 [0 ffffffff 7 800] ------- [7:255 -1:255 32 0] 
r 0.471165559 _5_ RTR  --- 2 message 32 [0 ffffffff 7 800] ------- [7:255 -1:255 32 0] 
r 0.471165638 _1_ RTR  --- 2 message 32 [0 ffffffff 7 800] ------- [7:255 -1:255 32 0] 
r 0.471165638 _8_ RTR  --- 2 message 32 [0 ffffffff 7 800] ------- [7:255 -1:255 32 0] 
s 0.622244972 _9_ RTR  --- 3 message 32 [0 0 0 0] ------- [9:255 -1:255 32 0] 
r 0.623505306 _8_ RTR  --- 3 message 32 [0 ffffffff 9 800] ------- [9:255 -1:255 32 0] 
r 0.623505306 _6_ RTR  --- 3 message 32 [0 ffffffff 9 800] ------- [9:255 -1:255 32 0] 
r 0.623505444 _7_ RTR  --- 3 message 32 [0 ffffffff 9 800] ------- [9:255 -1:255 32 0] 
r 0.623505444 _5_ RTR  --- 3 message 32 [0 ffffffff 9 800] ------- [9:255 -1:255 32 0] 
r 0.623505639 _2_ RTR  --- 3 message 32 [0 ffffffff 9 800] ------- [9:255 -1:255 32 0] 
r 0.623505718 _4_ RTR  --- 3 message 32 [0 ffffffff 9 800] ------- [9:255 -1:255 32 0] 
r 0.623505718 _3_ RTR  --- 3 message 32 [0 ffffffff 9 800] ------- [9:255 -1:255 32 0] 
r 0.623505718 _1_ RTR  --- 3 message 32 [0 ffffffff 9 800] ------- [9:255 -1:255 32 0] 
s 0.634544216 _5_ RTR  --- 4 message 32 [0 0 0 0] ------- [5:255 -1:255 32 0] 
r 0.635904549 _4_ RTR  --- 4 message 32 [0 ffffffff 5 800] ------- [5:255 -1:255 32 0] 
r 0.635904549 _1_ RTR  --- 4 message 32 [0 ffffffff 5 800] ------- [5:255 -1:255 32 0] 
r 0.635904549 _6_ RTR  --- 4 message 32 [0 ffffffff 5 800] ------- [5:255 -1:255 32 0] 
r 0.635904549 _8_ RTR  --- 4 message 32 [0 ffffffff 5 800] ------- [5:255 -1:255 32 0] 
r 0.635904687 _2_ RTR  --- 4 message 32 [0 ffffffff 5 800] ------- [5:255 -1:255 32 0] 
r 0.635904687 _0_ RTR  --- 4 message 32 [0 ffffffff 5 800] ------- [5:255 -1:255 32 0] 
r 0.635904687 _9_ RTR  --- 4 message 32 [0 ffffffff 5 800] ------- [5:255 -1:255 32 0] 
r 0.635904883 _7_ RTR  --- 4 message 32 [0 ffffffff 5 800] ------- [5:255 -1:255 32 0] 
r 0.635904961 _3_ RTR  --- 4 message 32 [0 ffffffff 5 800] ------- [5:255 -1:255 32 0] 
s 0.890857830 _3_ RTR  --- 5 message 32 [0 0 0 0] ------- [3:255 -1:255 32 0] 
r 0.892038163 _2_ RTR  --- 5 message 32 [0 ffffffff 3 800] ------- [3:255 -1:255 32 0] 
r 0.892038163 _7_ RTR  --- 5 message 32 [0 ffffffff 3 800] ------- [3:255 -1:255 32 0] 
r 0.892038301 _6_ RTR  --- 5 message 32 [0 ffffffff 3 800] ------- [3:255 -1:255 32 0] 
r 0.892038496 _1_ RTR  --- 5 message 32 [0 ffffffff 3 800] ------- [3:255 -1:255 32 0] 
r 0.892038575 _5_ RTR  --- 5 message 32 [0 ffffffff 3 800] ------- [3:255 -1:255 32 0] 
r 0.892038575 _9_ RTR  --- 5 message 32 [0 ffffffff 3 800] ------- [3:255 -1:255 32 0] 
M 1.00000 0 (100.00, 100.00, 0.00), (2.00, 2.00), 5.00
M 1.00000 5 (200.00, 200.00, 0.00), (4.00, 4.00), 5.00
M 1.00000 7 (200.00, 400.00, 0.00), (6.00, 6.00), 5.00
s 1.000000000 _0_ AGT  --- 6 tcp 40 [0 0 0 0] ------- [0:0 5:0 32 0] [0 0] 0 0
r 1.000000000 _0_ RTR  --- 6 tcp 40 [0 0 0 0] ------- [0:0 5:0 32 0] [0 0] 0 0
s 1.000000000 _0_ RTR  --- 6 tcp 60 [0 0 0 0] ------- [0:0 5:0 32 5] [0 0] 0 0
r 1.004534300 _5_ AGT  --- 6 tcp 60 [13a 5 0 800] ------- [0:0 5:0 32 5] [0 0] 1 0
s 1.004534300 _5_ AGT  --- 7 ack 40 [0 0 0 0] ------- [5:0 0:0 32 0] [0 0] 0 0
r 1.004534300 _5_ RTR  --- 7 ack 40 [0 0 0 0] ------- [5:0 0:0 32 0] [0 0] 0 0
s 1.121224081 _0_ RTR  --- 8 message 32 [0 0 0 0] ------- [0:255 -1:255 32 0] 
r 1.122624416 _1_ RTR  --- 8 message 32 [0 ffffffff 0 800] ------- [0:255 -1:255 32 0] 
r 1.122624416 _4_ RTR  --- 8 message 32 [0 ffffffff 0 800] ------- [0:255 -1:255 32 0] 
r 1.122624553 _5_ RTR  --- 8 message 32 [0 ffffffff 0 800] ------- [0:255 -1:255 32 0] 
s 1.122624553 _5_ RTR  --- 7 ack 80 [0 0 0 0] ------- [5:0 0:0 32 0] [0 0] 0 0
r 1.122624750 _2_ RTR  --- 8 message 32 [0 ffffffff 0 800] ------- [0:255 -1:255 32 0] 
r 1.122624829 _6_ RTR  --- 8 message 32 [0 ffffffff 0 800] ------- [0:255 -1:255 32 0] 
r 1.122624829 _8_ RTR  --- 8 message 32 [0 ffffffff 0 800] ------- [0:255 -1:255 32 0] 
r 1.124625967 _0_ AGT  --- 7 ack 80 [13a 0 5 800] ------- [5:0 0:0 32 0] [0 0] 1 0
s 1.124625967 _0_ AGT  --- 9 tcp 1040 [0 0 0 0] ------- [0:0 5:0 32 0] [1 0] 0 0
r 1.124625967 _0_ RTR  --- 9 tcp 1040 [0 0 0 0] ------- [0:0 5:0 32 0] [1 0] 0 0
s 1.124625967 _0_ RTR  --- 9 tcp 1060 [0 0 0 0] ------- [0:0 5:0 32 5] [1 0] 0 0
s 1.124625967 _0_ AGT  --- 10 tcp 1040 [0 0 0 0] ------- [0:0 5:0 32 0] [2 0] 0 0
r 1.124625967 _0_ RTR  --- 10 tcp 1040 [0 0 0 0] ------- [0:0 5:0 32 0] [2 0] 0 0
s 1.124625967 _0_ RTR  --- 10 tcp 1060 [0 0 0 0] ------- [0:0 5:0 32 5] [2 0] 0 0
r 1.134951381 _5_ AGT  --- 9 tcp 1060 [13a 5 0 800] ------- [0:0 5:0 32 5] [1 0] 1 0
s 1.134951381 _5_ AGT  --- 11 ack 40 [0 0 0 0] ------- [5:0 0:0 32 0] [1 0] 0 0
r 1.134951381 _5_ RTR  --- 11 ack 40 [0 0 0 0] ------- [5:0 0:0 32 0] [1 0] 0 0
s 1.134951381 _5_ RTR  --- 11 ack 60 [0 0 0 0] ------- [5:0 0:0 32 0] [1 0] 0 0
r 1.137116796 _0_ AGT  --- 11 ack 60 [13a 0 5 800] ------- [5:0 0:0 32 0] [1 0] 1 0
s 1.137116796 _0_ AGT  --- 12 tcp 1040 [0 0 0 0] ------- [0:0 5:0 32 0] [3 0] 0 0
r 1.137116796 _0_ RTR  --- 12 tcp 1040 [0 0 0 0] ------- [0:0 5:0 32 0] [3 0] 0 0
s 1.137116796 _0_ RTR  --- 12 tcp 1060 [0 0 0 0] ------- [0:0 5:0 32 5] [3 0] 0 0
s 1.137116796 _0_ AGT  --- 13 tcp 1040 [0 0 0 0] ------- [0:0 5:0 32 0] [4 0] 0 0
r 1.137116796 _0_ RTR  --- 13 tcp 1040 [0 0 0 0] ------- [0:0 5:0 32 0] [4 0] 0 0
s 1.137116796 _0_ RTR  --- 13 tcp 1060 [0 0 0 0] ------- [0:0 5:0 32 5] [4 0] 0 0
r 1.147222210 _5_ AGT  --- 10 tcp 1060 [13a 5 0 800] ------- [0:0 5:0 32 5] [2 0] 1 0
s 1.147222210 _5_ AGT  --- 14 ack 40 [0 0 0 0] ------- [5:0 0:0 32 0] [2 0] 0 0
r 1.147222210 _5_ RTR  --- 14 ack 40 [0 0 0 0] ------- [5:0 0:0 32 0] [2 0] 0 0
s 1.147222210 _5_ RTR  --- 14 ack 60 [0 0 0 0] ------- [5:0 0:0 32 0] [2 0] 0 0
r 1.149287624 _0_ AGT  --- 14 ack 60 [13a 0 5 800] ------- [5:0 0:0 32 0] [2 0] 1 0
s 1.149287624 _0_ AGT  --- 15 tcp 1040 [0 0 0 0] ------- [0:0 5:0 32 0] [5 0] 0 0
r 1.149287624 _0_ RTR  --- 15 tcp 1040 [0 0 0 0] ------- [0:0 5:0 32 0] [5 0] 0 0
s 1.149287624 _0_ RTR  --- 15 tcp 1060 [0 0 0 0] ------- [0:0 5:0 32 5] [5 0] 0 0
s 1.149287624 _0_ AGT  --- 16 tcp 1040 [0 0 0 0] ------- [0:0 5:0 32 0] [6 0] 0 0
r 1.149287624 _0_ RTR  --- 16 tcp 1040 [0 0 0 0] ------- [0:0 5:0 32 0] [6 0] 0 0
s 1.149287624 _0_ RTR  --- 16 tcp 1060 [0 0 0 0] ------- [0:0 5:0 32 5] [6 0] 0 0
r 1.159493038 _5_ AGT  --- 12 tcp 1060 [13a 5 0 800] ------- [0:0 5:0 32 5] [3 0] 1 0
s 1.159493038 _5_ AGT  --- 17 ack 40 [0 0 0 0] ------- [5:0 0:0 32 0] [3 0] 0 0
r 1.159493038 _5_ RTR  --- 17 ack 40 [0 0 0 0] ------- [5:0 0:0 32 0] [3 0] 0 0
s 1.159493038 _5_ RTR  --- 17 ack 60 [0 0 0 0] ------- [5:0 0:0 32 0] [3 0] 0 0
r 1.169478924 _5_ AGT  --- 13 tcp 1060 [13a 5 0 800] ------- [0:0 5:0 32 5] [4 0] 1 0
s 1.169478924 _5_ AGT  --- 18 ack 40 [0 0 0 0] ------- [5:0 0:0 32 0] [4 0] 0 0
r 1.169478924 _5_ RTR  --- 18 ack 40 [0 0 0 0] ------- [5:0 0:0 32 0] [4 0] 0 0
s 1.169478924 _5_ RTR  --- 18 ack 60 [0 0 0 0] ------- [5:0 0:0 32 0] [4 0] 0 0
r 1.179684809 _5_ AGT  --- 15 tcp 1060 [13a 5 0 800] ------- [0:0 5:0 32 5] [5 0] 1 0
s 1.179684809 _5_ AGT  --- 19 ack 40 [0 0 0 0] ------- [5:0 0:0 32 0] [5 0] 0 0
r 1.179684809 _5_ RTR  --- 19 ack 40 [0 0 0 0] ------- [5:0 0:0 32 0] [5 0] 0 0
s 1.179684809 _5_ RTR  --- 19 ack 60 [0 0 0 0] ------- [5:0 0:0 32 0] [5 0] 0 0
r 1.181730224 _0_ AGT  --- 17 ack 60 [13a 0 5 800] ------- [5:0 0:0 32 0] [3 0] 1 0
s 1.181730224 _0_ AGT  --- 20 tcp 1040 [0 0 0 0] ------- [0:0 5:0 32 0] [7 0] 0 0
r 1.181730224 _0_ RTR  --- 20 tcp 1040 [0 0 0 0] ------- [0:0 5:0 32 0] [7 0] 0 0
s 1.181730224 _0_ RTR  --- 20 tcp 1060 [0 0 0 0] ------- [0:0 5:0 32 5] [7 0] 0 0
s 1.181730224 _0_ AGT  --- 21 tcp 1040 [0 0 0 0] ------- [0:0 5:0 32 0] [8 0] 0 0
r 1.181730224 _0_ RTR  --- 21 tcp 1040 [0 0 0 0] ------- [0:0 5:0 32 0] [8 0] 0 0
s 1.181730224 _0_ RTR  --- 21 tcp 1060 [0 0 0 0] ------- [0:0 5:0 32 5] [8 0] 0 0
r 1.183876109 _0_ AGT  --- 18 ack 60 [13a 0 5 800] ------- [5:0 0:0 32 0] [4 0] 1 0
s 1.183876109 _0_ AGT  --- 22 tcp 1040 [0 0 0 0] ------- [0:0 5:0 32 0] [9 0] 0 0
r 1.183876109 _0_ RTR  --- 22 tcp 1040 [0 0 0 0] ------- [0:0 5:0 32 0] [9 0] 0 0
s 1.183876109 _0_ RTR  --- 22 tcp 1060 [0 0 0 0] ------- [0:0 5:0 32 5] [9 0] 0 0
s 1.183876109 _0_ AGT  --- 23 tcp 1040 [0 0 0 0] ------- [0:0 5:0 32 0] [10 0] 0 0
r 1.183876109 _0_ RTR  --- 23 tcp 1040 [0 0 0 0] ------- [0:0 5:0 32 0] [10 0] 0 0
s 1.183876109 _0_ RTR  --- 23 tcp 1060 [0 0 0 0] ------- [0:0 5:0 32 5] [10 0] 0 0
r 1.193981523 _5_ AGT  --- 16 tcp 1060 [13a 5 0 800] ------- [0:0 5:0 32 5] [6 0] 1 0
s 1.193981523 _5_ AGT  --- 24 ack 40 [0 0 0 0] ------- [5:0 0:0 32 0] [6 0] 0 0
r 1.193981523 _5_ RTR  --- 24 ack 40 [0 0 0 0] ------- [5:0 0:0 32 0] [6 0] 0 0
s 1.193981523 _5_ RTR  --- 24 ack 60 [0 0 0 0] ------- [5:0 0:0 32 0] [6 0] 0 0
r 1.204047409 _5_ AGT  --- 20 tcp 1060 [13a 5 0 800] ------- [0:0 5:0 32 5] [7 0] 1 0
s 1.204047409 _5_ AGT  --- 25 ack 40 [0 0 0 0] ------- [5:0 0:0 32 0] [7 0] 0 0
r 1.204047409 _5_ RTR  --- 25 ack 40 [0 0 0 0] ------- [5:0 0:0 32 0] [7 0] 0 0
s 1.204047409 _5_ RTR  --- 25 ack 60 [0 0 0 0] ------- [5:0 0:0 32 0] [7 0] 0 0
r 1.206072823 _0_ AGT  --- 19 ack 60 [13a 0 5 800] ------- [5:0 0:0 32 0] [5 0] 1 0
s 1.206072823 _0_ AGT  --- 26 tcp 1040 [0 0 0 0] ------- [0:0 5:0 32 0] [11 0] 0 0
r 1.206072823 _0_ RTR  --- 26 tcp 1040 [0 0 0 0] ------- [0:0 5:0 32 0] [11 0] 0 0
s 1.206072823 _0_ RTR  --- 26 tcp 1060 [0 0 0 0] ------- [0:0 5:0 32 5] [11 0] 0 0
s 1.206072823 _0_ AGT  --- 27 tcp 1040 [0 0 0 0] ------- [0:0 5:0 32 0] [12 0] 0 0
r 1.206072823 _0_ RTR  --- 27 tcp 1040 [0 0 0 0] ------- [0:0 5:0 32 0] [12 0] 0 0
s 1.206072823 _0_ RTR  --- 27 tcp 1060 [0 0 0 0] ------- [0:0 5:0 32 5] [12 0] 0 0
r 1.208058709 _0_ AGT  --- 24 ack 60 [13a 0 5 800] ------- [5:0 0:0 32 0] [6 0] 1 0
s 1.208058709 _0_ AGT  --- 28 tcp 1040 [0 0 0 0] ------- [0:0 5:0 32 0] [13 0] 0 0
r 1.208058709 _0_ RTR  --- 28 tcp 1040 [0 0 0 0] ------- [0:0 5:0 32 0] [13 0] 0 0
s 1.208058709 _0_ RTR  --- 28 tcp 1060 [0 0 0 0] ------- [0:0 5:0 32 5] [13 0] 0 0
s 1.208058709 _0_ AGT  --- 29 tcp 1040 [0 0 0 0] ------- [0:0 5:0 32 0] [14 0] 0 0
r 1.208058709 _0_ RTR  --- 29 tcp 1040 [0 0 0 0] ------- [0:0 5:0 32 0] [14 0] 0 0
s 1.208058709 _0_ RTR  --- 29 tcp 1060 [0 0 0 0] ------- [0:0 5:0 32 5] [14 0] 0 0
r 1.210284595 _0_ AGT  --- 25 ack 60 [13a 0 5 800] ------- [5:0 0:0 32 0] [7 0] 1 0
s 1.210284595 _0_ AGT  --- 30 tcp 1040 [0 0 0 0] ------- [0:0 5:0 32 0] [15 0] 0 0
r 1.210284595 _0_ RTR  --- 30 tcp 1040 [0 0 0 0] ------- [0:0 5:0 32 0] [15 0] 0 0
s 1.210284595 _0_ RTR  --- 30 tcp 1060 [0 0 0 0] ------- [0:0 5:0 32 5] [15 0] 0 0
s 1.210284595 _0_ AGT  --- 31 tcp 1040 [0 0 0 0] ------- [0:0 5:0 32 0] [16 0] 0 0
r 1.210284595 _0_ RTR  --- 31 tcp 1040 [0 0 0 0] ------- [0:0 5:0 32 0] [16 0] 0 0
s 1.210284595 _0_ RTR  --- 31 tcp 1060 [0 0 0 0] ------- [0:0 5:0 32 5] [16 0] 0 0
r 1.220310009 _5_ AGT  --- 21 tcp 1060 [13a 5 0 800] ------- [0:0 5:0 32 5] [8 0] 1 0
s 1.220310009 _5_ AGT  --- 32 ack 40 [0 0 0 0] ------- [5:0 0:0 32 0] [8 0] 0 0
r 1.220310009 _5_ RTR  --- 32 ack 40 [0 0 0 0] ------- [5:0 0:0 32 0] [8 0] 0 0
s 1.220310009 _5_ RTR  --- 32 ack 60 [0 0 0 0] ------- [5:0 0:0 32 0] [8 0] 0 0
r 1.223982366 _0_ AGT  --- 32 ack 60 [13a 0 5 800] ------- [5:0 0:0 32 0] [8 0] 1 0
s 1.223982366 _0_ AGT  --- 33 tcp 1040 [0 0 0 0] ------- [0:0 5:0 32 0] [17 0] 0 0
r 1.223982366 _0_ RTR  --- 33 tcp 1040 [0 0 0 0] ------- [0:0 5:0 32 0] [17 0] 0 0
s 1.223982366 _0_ RTR  --- 33 tcp 1060 [0 0 0 0] ------- [0:0 5:0 32 5] [17 0] 0 0
s 1.223982366 _0_ AGT  --- 34 tcp 1040 [0 0 0 0] ------- [0:0 5:0 32 0] [18 0] 0 0
r 1.223982366 _0_ RTR  --- 34 tcp 1040 [0 0 0 0] ------- [0:0 5:0 32 0] [18 0] 0 0
s 1.223982366 _0_ RTR  --- 34 tcp 1060 [0 0 0 0] ------- [0:0 5:0 32 5] [18 0] 0 0
r 1.234127780 _5_ AGT  --- 22 tcp 1060 [13a 5 0 800] ------- [0:0 5:0 32 5] [9 0] 1 0
s 1.234127780 _5_ AGT  --- 35 ack 40 [0 0 0 0] ------- [5:0 0:0 32 0] [9 0] 0 0
r 1.234127780 _5_ RTR  --- 35 ack 40 [0 0 0 0] ------- [5:0 0:0 32 0] [9 0] 0 0
s 1.234127780 _5_ RTR  --- 35 ack 60 [0 0 0 0] ------- [5:0 0:0 32 0] [9 0] 0 0
r 1.236213194 _0_ AGT  --- 35 ack 60 [13a 0 5 800] ------- [5:0 0:0 32 0] [9 0] 1 0
s 1.236213194 _0_ AGT  --- 36 tcp 1040 [0 0 0 0] ------- [0:0 5:0 32 0] [19 0] 0 0
r 1.236213194 _0_ RTR  --- 36 tcp 1040 [0 0 0 0] ------- [0:0 5:0 32 0] [19 0] 0 0
s 1.236213194 _0_ RTR  --- 36 tcp 1060 [0 0 0 0] ------- [0:0 5:0 32 5] [19 0] 0 0
s 1.236213194 _0_ AGT  --- 37 tcp 1040 [0 0 0 0] ------- [0:0 5:0 32 0] [20 0] 0 0
r 1.236213194 _0_ RTR  --- 37 tcp 1040 [0 0 0 0] ------- [0:0 5:0 32 0] [20 0] 0 0
s 1.236213194 _0_ RTR  --- 37 tcp 1060 [0 0 0 0] ------- [0:0 5:0 32 5] [20 0] 0 0
r 1.246238608 _5_ AGT  --- 23 tcp 1060 [13a 5 0 800] ------- [0:0 5:0 32 5] [10 0] 1 0
s 1.246238608 _5_ AGT  --- 38 ack 40 [0 0 0 0] ------- [5:0 0:0 32 0] [10 0] 0 0
r 1.246238608 _5_ RTR  --- 38 ack 40 [0 0 0 0] ------- [5:0 0:0 32 0] [10 0] 0 0
s 1.246238608 _5_ RTR  --- 38 ack 60 [0 0 0 0] ------- [5:0 0:0 32 0] [10 0] 0 0
r 1.256264494 _5_ AGT  --- 26 tcp 1060 [13a 5 0 800] ------- [0:0 5:0 32 5] [11 0] 1 0
s 1.256264494 _5_ AGT  --- 39 ack 40 [0 0 0 0] ------- [5:0 0:0 32 0] [11 0] 0 0
r 1.256264494 _5_ RTR  --- 39 ack 40 [0 0 0 0] ------- [5:0 0:0 32 0] [11 0] 0 0
s 1.256264494 _5_ RTR  --- 39 ack 60 [0 0 0 0] ------- [5:0 0:0 32 0] [11 0] 0 0
r 1.258489908 _0_ AGT  --- 38 ack 60 [13a 0 5 800] ------- [5:0 0:0 32 0] [10 0] 1 0
s 1.258489908 _0_ AGT  --- 40 tcp 1040 [0 0 0 0] ------- [0:0 5:0 32 0] [21 0] 0 0
r 1.258489908 _0_ RTR  --- 40 tcp 1040 [0 0 0 0] ------- [0:0 5:0 32 0] [21 0] 0 0
s 1.258489908 _0_ RTR  --- 40 tcp 1060 [0 0 0 0] ------- [0:0 5:0 32 5] [21 0] 0 0
s 1.258489908 _0_ AGT  --- 41 tcp 1040 [0 0 0 0] ------- [0:0 5:0 32 0] [22 0] 0 0
r 1.258489908 _0_ RTR  --- 41 tcp 1040 [0 0 0 0] ------- [0:0 5:0 32 0] [22 0] 0 0
s 1.258489908 _0_ RTR  --- 41 tcp 1060 [0 0 0 0] ------- [0:0 5:0 32 5] [22 0] 0 0
r 1.260595794 _0_ AGT  --- 39 ack 60 [13a 0 5 800] ------- [5:0 0:0 32 0] [11 0] 1 0
s 1.260595794 _0_ AGT  --- 42 tcp 1040 [0 0 0 0] ------- [0:0 5:0 32 0] [23 0] 0 0
r 1.260595794 _0_ RTR  --- 42 tcp 1040 [0 0 0 0] ------- [0:0 5:0 32 0] [23 0] 0 0
s 1.260595794 _0_ RTR  --- 42 tcp 1060 [0 0 0 0] ------- [0:0 5:0 32 5] [23 0] 0 0
s 1.260595794 _0_ AGT  --- 43 tcp 1040 [0 0 0 0] ------- [0:0 5:0 32 0] [24 0] 0 0
r 1.260595794 _0_ RTR  --- 43 tcp 1040 [0 0 0 0] ------- [0:0 5:0 32 0] [24 0] 0 0
s 1.260595794 _0_ RTR  --- 43 tcp 1060 [0 0 0 0] ------- [0:0 5:0 32 5] [24 0] 0 0
r 1.270701208 _5_ AGT  --- 27 tcp 1060 [13a 5 0 800] ------- [0:0 5:0 32 5] [12 0] 1 0
s 1.270701208 _5_ AGT  --- 44 ack 40 [0 0 0 0] ------- [5:0 0:0 32 0] [12 0] 0 0
r 1.270701208 _5_ RTR  --- 44 ack 40 [0 0 0 0] ------- [5:0 0:0 32 0] [12 0] 0 0
s 1.270701208 _5_ RTR  --- 44 ack 60 [0 0 0 0] ------- [5:0 0:0 32 0] [12 0] 0 0
r 1.281633094 _5_ AGT  --- 28 tcp 1060 [13a 5 0 800] ------- [0:0 5:0 32 5] [13 0] 1 0
s 1.281633094 _5_ AGT  --- 46 ack 40 [0 0 0 0] ------- [5:0 0:0 32 0] [13 0] 0 0
r 1.281633094 _5_ RTR  --- 46 ack 40 [0 0 0 0] ------- [5:0 0:0 32 0] [13 0] 0 0
s 1.281633094 _5_ RTR  --- 46 ack 60 [0 0 0 0] ------- [5:0 0:0 32 0] [13 0] 0 0
s 1.285874288 _8_ RTR  --- 45 message 32 [0 0 0 0] ------- [8:255 -1:255 32 0] 
r 1.291958979 _5_ AGT  --- 29 tcp 1060 [13a 5 0 800] ------- [0:0 5:0 32 5] [14 0] 1 0
s 1.291958979 _5_ AGT  --- 47 ack 40 [0 0 0 0] ------- [5:0 0:0 32 0] [14 0] 0 0
r 1.291958979 _5_ RTR  --- 47 ack 40 [0 0 0 0] ------- [5:0 0:0 32 0] [14 0] 0 0
s 1.291958979 _5_ RTR  --- 47 ack 60 [0 0 0 0] ------- [5:0 0:0 32 0] [14 0] 0 0
r 1.302064865 _5_ AGT  --- 30 tcp 1060 [13a 5 0 800] ------- [0:0 5:0 32 5] [15 0] 1 0
s 1.302064865 _5_ AGT  --- 48 ack 40 [0 0 0 0] ------- [5:0 0:0 32 0] [15 0] 0 0
r 1.302064865 _5_ RTR  --- 48 ack 40 [0 0 0 0] ------- [5:0 0:0 32 0] [15 0] 0 0
s 1.302064865 _5_ RTR  --- 48 ack 60 [0 0 0 0] ------- [5:0 0:0 32 0] [15 0] 0 0
r 1.312110751 _5_ AGT  --- 31 tcp 1060 [13a 5 0 800] ------- [0:0 5:0 32 5] [16 0] 1 0
s 1.312110751 _5_ AGT  --- 49 ack 40 [0 0 0 0] ------- [5:0 0:0 32 0] [16 0] 0 0
r 1.312110751 _5_ RTR  --- 49 ack 40 [0 0 0 0] ------- [5:0 0:0 32 0] [16 0] 0 0
s 1.312110751 _5_ RTR  --- 49 ack 60 [0 0 0 0] ------- [5:0 0:0 32 0] [16 0] 0 0
r 1.314236165 _0_ AGT  --- 44 ack 60 [13a 0 5 800] ------- [5:0 0:0 32 0] [12 0] 1 0
s 1.314236165 _0_ AGT  --- 50 tcp 1040 [0 0 0 0] ------- [0:0 5:0 32 0] [25 0] 0 0
r 1.314236165 _0_ RTR  --- 50 tcp 1040 [0 0 0 0] ------- [0:0 5:0 32 0] [25 0] 0 0
s 1.314236165 _0_ RTR  --- 50 tcp 1060 [0 0 0 0] ------- [0:0 5:0 32 5] [25 0] 0 0
s 1.314236165 _0_ AGT  --- 51 tcp 1040 [0 0 0 0] ------- [0:0 5:0 32 0] [26 0] 0 0
r 1.314236165 _0_ RTR  --- 51 tcp 1040 [0 0 0 0] ------- [0:0 5:0 32 0] [26 0] 0 0
s 1.314236165 _0_ RTR  --- 51 tcp 1060 [0 0 0 0] ------- [0:0 5:0 32 5] [26 0] 0 0
r 1.316342050 _0_ AGT  --- 46 ack 60 [13a 0 5 800] ------- [5:0 0:0 32 0] [13 0] 1 0
s 1.316342050 _0_ AGT  --- 52 tcp 1040 [0 0 0 0] ------- [0:0 5:0 32 0] [27 0] 0 0
r 1.316342050 _0_ RTR  --- 52 tcp 1040 [0 0 0 0] ------- [0:0 5:0 32 0] [27 0] 0 0
s 1.316342050 _0_ RTR  --- 52 tcp 1060 [0 0 0 0] ------- [0:0 5:0 32 5] [27 0] 0 0
s 1.316342050 _0_ AGT  --- 53 tcp 1040 [0 0 0 0] ------- [0:0 5:0 32 0] [28 0] 0 0
r 1.316342050 _0_ RTR  --- 53 tcp 1040 [0 0 0 0] ------- [0:0 5:0 32 0] [28 0] 0 0
s 1.316342050 _0_ RTR  --- 53 tcp 1060 [0 0 0 0] ------- [0:0 5:0 32 5] [28 0] 0 0
r 1.317587134 _9_ RTR  --- 45 message 32 [0 ffffffff 8 800] ------- [8:255 -1:255 32 0] 
r 1.317587138 _5_ RTR  --- 45 message 32 [0 ffffffff 8 800] ------- [8:255 -1:255 32 0] 
r 1.317587272 _6_ RTR  --- 45 message 32 [0 ffffffff 8 800] ------- [8:255 -1:255 32 0] 
r 1.317587272 _4_ RTR  --- 45 message 32 [0 ffffffff 8 800] ------- [8:255 -1:255 32 0] 
r 1.317587467 _1_ RTR  --- 45 message 32 [0 ffffffff 8 800] ------- [8:255 -1:255 32 0] 
r 1.317587543 _7_ RTR  --- 45 message 32 [0 ffffffff 8 800] ------- [8:255 -1:255 32 0] 
r 1.317587546 _2_ RTR  --- 45 message 32 [0 ffffffff 8 800] ------- [8:255 -1:255 32 0] 
r 1.317587551 _0_ RTR  --- 45 message 32 [0 ffffffff 8 800] ------- [8:255 -1:255 32 0] 
r 1.327438965 _5_ AGT  --- 33 tcp 1060 [13a 5 0 800] ------- [0:0 5:0 32 5] [17 0] 1 0
s 1.327438965 _5_ AGT  --- 54 ack 40 [0 0 0 0] ------- [5:0 0:0 32 0] [17 0] 0 0
r 1.327438965 _5_ RTR  --- 54 ack 40 [0 0 0 0] ------- [5:0 0:0 32 0] [17 0] 0 0
s 1.327438965 _5_ RTR  --- 54 ack 60 [0 0 0 0] ------- [5:0 0:0 32 0] [17 0] 0 0
r 1.329684380 _0_ AGT  --- 47 ack 60 [13a 0 5 800] ------- [5:0 0:0 32 0] [14 0] 1 0
s 1.329684380 _0_ AGT  --- 55 tcp 1040 [0 0 0 0] ------- [0:0 5:0 32 0] [29 0] 0 0
r 1.329684380 _0_ RTR  --- 55 tcp 1040 [0 0 0 0] ------- [0:0 5:0 32 0] [29 0] 0 0
s 1.329684380 _0_ RTR  --- 55 tcp 1060 [0 0 0 0] ------- [0:0 5:0 32 5] [29 0] 0 0
s 1.329684380 _0_ AGT  --- 56 tcp 1040 [0 0 0 0] ------- [0:0 5:0 32 0] [30 0] 0 0
r 1.329684380 _0_ RTR  --- 56 tcp 1040 [0 0 0 0] ------- [0:0 5:0 32 0] [30 0] 0 0
s 1.329684380 _0_ RTR  --- 56 tcp 1060 [0 0 0 0] ------- [0:0 5:0 32 5] [30 0] 0 0
r 1.333416265 _0_ AGT  --- 48 ack 60 [13a 0 5 800] ------- [5:0 0:0 32 0] [15 0] 1 0
s 1.333416265 _0_ AGT  --- 57 tcp 1040 [0 0 0 0] ------- [0:0 5:0 32 0] [31 0] 0 0
r 1.333416265 _0_ RTR  --- 57 tcp 1040 [0 0 0 0] ------- [0:0 5:0 32 0] [31 0] 0 0
s 1.333416265 _0_ RTR  --- 57 tcp 1060 [0 0 0 0] ------- [0:0 5:0 32 5] [31 0] 0 0
s 1.333416265 _0_ AGT  --- 58 tcp 1040 [0 0 0 0] ------- [0:0 5:0 32 0] [32 0] 0 0
r 1.333416265 _0_ RTR  --- 58 tcp 1040 [0 0 0 0] ------- [0:0 5:0 32 0] [32 0] 0 0
s 1.333416265 _0_ RTR  --- 58 tcp 1060 [0 0 0 0] ------- [0:0 5:0 32 5] [32 0] 0 0
r 1.335742151 _0_ AGT  --- 49 ack 60 [13a 0 5 800] ------- [5:0 0:0 32 0] [16 0] 1 0
s 1.335742151 _0_ AGT  --- 59 tcp 1040 [0 0 0 0] ------- [0:0 5:0 32 0] [33 0] 0 0
r 1.335742151 _0_ RTR  --- 59 tcp 1040 [0 0 0 0] ------- [0:0 5:0 32 0] [33 0] 0 0
s 1.335742151 _0_ RTR  --- 59 tcp 1060 [0 0 0 0] ------- [0:0 5:0 32 5] [33 0] 0 0
s 1.335742151 _0_ AGT  --- 60 tcp 1040 [0 0 0 0] ------- [0:0 5:0 32 0] [34 0] 0 0
r 1.335742151 _0_ RTR  --- 60 tcp 1040 [0 0 0 0] ------- [0:0 5:0 32 0] [34 0] 0 0
s 1.335742151 _0_ RTR  --- 60 tcp 1060 [0 0 0 0] ------- [0:0 5:0 32 5] [34 0] 0 0
r 1.337768036 _0_ AGT  --- 54 ack 60 [13a 0 5 800] ------- [5:0 0:0 32 0] [17 0] 1 0
s 1.337768036 _0_ AGT  --- 61 tcp 1040 [0 0 0 0] ------- [0:0 5:0 32 0] [35 0] 0 0
r 1.337768036 _0_ RTR  --- 61 tcp 1040 [0 0 0 0] ------- [0:0 5:0 32 0] [35 0] 0 0
s 1.337768036 _0_ RTR  --- 61 tcp 1060 [0 0 0 0] ------- [0:0 5:0 32 5] [35 0] 0 0
s 1.337768036 _0_ AGT  --- 62 tcp 1040 [0 0 0 0] ------- [0:0 5:0 32 0] [36 0] 0 0
r 1.337768036 _0_ RTR  --- 62 tcp 1040 [0 0 0 0] ------- [0:0 5:0 32 0] [36 0] 0 0
s 1.337768036 _0_ RTR  --- 62 tcp 1060 [0 0 0 0] ------- [0:0 5:0 32 5] [36 0] 0 0
r 1.347913451 _5_ AGT  --- 34 tcp 1060 [13a 5 0 800] ------- [0:0 5:0 32 5] [18 0] 1 0
s 1.347913451 _5_ AGT  --- 63 ack 40 [0 0 0 0] ------- [5:0 0:0 32 0] [18 0] 0 0
r 1.347913451 _5_ RTR  --- 63 ack 40 [0 0 0 0] ------- [5:0 0:0 32 0] [18 0] 0 0
s 1.347913451 _5_ RTR  --- 63 ack 60 [0 0 0 0] ------- [5:0 0:0 32 0] [18 0] 0 0
r 1.358119336 _5_ AGT  --- 36 tcp 1060 [13a 5 0 800] ------- [0:0 5:0 32 5] [19 0] 1 0
s 1.358119336 _5_ AGT  --- 64 ack 40 [0 0 0 0] ------- [5:0 0:0 32 0] [19 0] 0 0
r 1.358119336 _5_ RTR  --- 64 ack 40 [0 0 0 0] ------- [5:0 0:0 32 0] [19 0] 0 0
s 1.358119336 _5_ RTR  --- 64 ack 60 [0 0 0 0] ------- [5:0 0:0 32 0] [19 0] 0 0
r 1.368285222 _5_ AGT  --- 37 tcp 1060 [13a 5 0 800] ------- [0:0 5:0 32 5] [20 0] 1 0
s 1.368285222 _5_ AGT  --- 65 ack 40 [0 0 0 0] ------- [5:0 0:0 32 0] [20 0] 0 0
r 1.368285222 _5_ RTR  --- 65 ack 40 [0 0 0 0] ------- [5:0 0:0 32 0] [20 0] 0 0
s 1.368285222 _5_ RTR  --- 65 ack 60 [0 0 0 0] ------- [5:0 0:0 32 0] [20 0] 0 0
r 1.370310636 _0_ AGT  --- 63 ack 60 [13a 0 5 800] ------- [5:0 0:0 32 0] [18 0] 1 0
s 1.370310636 _0_ AGT  --- 66 tcp 1040 [0 0 0 0] ------- [0:0 5:0 32 0] [37 0] 0 0
r 1.370310636 _0_ RTR  --- 66 tcp 1040 [0 0 0 0] ------- [0:0 5:0 32 0] [37 0] 0 0
s 1.370310636 _0_ RTR  --- 66 tcp 1060 [0 0 0 0] ------- [0:0 5:0 32 5] [37 0] 0 0
s 1.370310636 _0_ AGT  --- 67 tcp 1040 [0 0 0 0] ------- [0:0 5:0 32 0] [38 0] 0 0
r 1.370310636 _0_ RTR  --- 67 tcp 1040 [0 0 0 0] ------- [0:0 5:0 32 0] [38 0] 0 0
s 1.370310636 _0_ RTR  --- 67 tcp 1060 [0 0 0 0] ------- [0:0 5:0 32 5] [38 0] 0 0
r 1.380436050 _5_ AGT  --- 40 tcp 1060 [13a 5 0 800] ------- [0:0 5:0 32 5] [21 0] 1 0
s 1.380436050 _5_ AGT  --- 68 ack 40 [0 0 0 0] ------- [5:0 0:0 32 0] [21 0] 0 0
r 1.380436050 _5_ RTR  --- 68 ack 40 [0 0 0 0] ------- [5:0 0:0 32 0] [21 0] 0 0
s 1.380436050 _5_ RTR  --- 68 ack 60 [0 0 0 0] ------- [5:0 0:0 32 0] [21 0] 0 0
r 1.382741464 _0_ AGT  --- 64 ack 60 [13a 0 5 800] ------- [5:0 0:0 32 0] [19 0] 1 0
s 1.382741464 _0_ AGT  --- 69 tcp 1040 [0 0 0 0] ------- [0:0 5:0 32 0] [39 0] 0 0
r 1.382741464 _0_ RTR  --- 69 tcp 1040 [0 0 0 0] ------- [0:0 5:0 32 0] [39 0] 0 0
s 1.382741464 _0_ RTR  --- 69 tcp 1060 [0 0 0 0] ------- [0:0 5:0 32 5] [39 0] 0 0
r 1.392826879 _5_ AGT  --- 41 tcp 1060 [13a 5 0 800] ------- [0:0 5:0 32 5] [22 0] 1 0
s 1.392826879 _5_ AGT  --- 70 ack 40 [0 0 0 0] ------- [5:0 0:0 32 0] [22 0] 0 0
r 1.392826879 _5_ RTR  --- 70 ack 40 [0 0 0 0] ------- [5:0 0:0 32 0] [22 0] 0 0
s 1.392826879 _5_ RTR  --- 70 ack 60 [0 0 0 0] ------- [5:0 0:0 32 0] [22 0] 0 0
r 1.394852293 _0_ AGT  --- 65 ack 60 [13a 0 5 800] ------- [5:0 0:0 32 0] [20 0] 1 0
s 1.394852293 _0_ AGT  --- 71 tcp 1040 [0 0 0 0] ------- [0:0 5:0 32 0] [40 0] 0 0
r 1.394852293 _0_ RTR  --- 71 tcp 1040 [0 0 0 0] ------- [0:0 5:0 32 0] [40 0] 0 0
s 1.394852293 _0_ RTR  --- 71 tcp 1060 [0 0 0 0] ------- [0:0 5:0 32 5] [40 0] 0 0
r 1.404977707 _5_ AGT  --- 42 tcp 1060 [13a 5 0 800] ------- [0:0 5:0 32 5] [23 0] 1 0
s 1.404977707 _5_ AGT  --- 72 ack 40 [0 0 0 0] ------- [5:0 0:0 32 0] [23 0] 0 0
r 1.404977707 _5_ RTR  --- 72 ack 40 [0 0 0 0] ------- [5:0 0:0 32 0] [23 0] 0 0
s 1.404977707 _5_ RTR  --- 72 ack 60 [0 0 0 0] ------- [5:0 0:0 32 0] [23 0] 0 0
r 1.414963593 _5_ AGT  --- 43 tcp 1060 [13a 5 0 800] ------- [0:0 5:0 32 5] [24 0] 1 0
s 1.414963593 _5_ AGT  --- 73 ack 40 [0 0 0 0] ------- [5:0 0:0 32 0] [24 0] 0 0
r 1.414963593 _5_ RTR  --- 73 ack 40 [0 0 0 0] ------- [5:0 0:0 32 0] [24 0] 0 0
s 1.414963593 _5_ RTR  --- 73 ack 60 [0 0 0 0] ------- [5:0 0:0 32 0] [24 0] 0 0
r 1.417049007 _0_ AGT  --- 68 ack 60 [13a 0 5 800] ------- [5:0 0:0 32 0] [21 0] 1 0
s 1.417049007 _0_ AGT  --- 74 tcp 1040 [0 0 0 0] ------- [0:0 5:0 32 0] [41 0] 0 0
r 1.417049007 _0_ RTR  --- 74 tcp 1040 [0 0 0 0] ------- [0:0 5:0 32 0] [41 0] 0 0
s 1.417049007 _0_ RTR  --- 74 tcp 1060 [0 0 0 0] ------- [0:0 5:0 32 5] [41 0] 0 0
r 1.427094421 _5_ AGT  --- 50 tcp 1060 [13a 5 0 800] ------- [0:0 5:0 32 5] [25 0] 1 0
s 1.427094421 _5_ AGT  --- 75 ack 40 [0 0 0 0] ------- [5:0 0:0 32 0] [25 0] 0 0
r 1.427094421 _5_ RTR  --- 75 ack 40 [0 0 0 0] ------- [5:0 0:0 32 0] [25 0] 0 0
s 1.427094421 _5_ RTR  --- 75 ack 60 [0 0 0 0] ------- [5:0 0:0 32 0] [25 0] 0 0
r 1.431006778 _0_ AGT  --- 70 ack 60 [13a 0 5 800] ------- [5:0 0:0 32 0] [22 0] 1 0
s 1.431006778 _0_ AGT  --- 76 tcp 1040 [0 0 0 0] ------- [0:0 5:0 32 0] [42 0] 0 0
r 1.431006778 _0_ RTR  --- 76 tcp 1040 [0 0 0 0] ------- [0:0 5:0 32 0] [42 0] 0 0
s 1.431006778 _0_ RTR  --- 76 tcp 1060 [0 0 0 0] ------- [0:0 5:0 32 5] [42 0] 0 0
r 1.441152192 _5_ AGT  --- 51 tcp 1060 [13a 5 0 800] ------- [0:0 5:0 32 5] [26 0] 1 0
s 1.441152192 _5_ AGT  --- 77 ack 40 [0 0 0 0] ------- [5:0 0:0 32 0] [26 0] 0 0
r 1.441152192 _5_ RTR  --- 77 ack 40 [0 0 0 0] ------- [5:0 0:0 32 0] [26 0] 0 0
s 1.441152192 _5_ RTR  --- 77 ack 60 [0 0 0 0] ------- [5:0 0:0 32 0] [26 0] 0 0
r 1.451298078 _5_ AGT  --- 52 tcp 1060 [13a 5 0 800] ------- [0:0 5:0 32 5] [27 0] 1 0
s 1.451298078 _5_ AGT  --- 78 ack 40 [0 0 0 0] ------- [5:0 0:0 32 0] [27 0] 0 0
r 1.451298078 _5_ RTR  --- 78 ack 40 [0 0 0 0] ------- [5:0 0:0 32 0] [27 0] 0 0
s 1.451298078 _5_ RTR  --- 78 ack 60 [0 0 0 0] ------- [5:0 0:0 32 0] [27 0] 0 0
r 1.462189964 _5_ AGT  --- 53 tcp 1060 [13a 5 0 800] ------- [0:0 5:0 32 5] [28 0] 1 0
s 1.462189964 _5_ AGT  --- 79 ack 40 [0 0 0 0] ------- [5:0 0:0 32 0] [28 0] 0 0
r 1.462189964 _5_ RTR  --- 79 ack 40 [0 0 0 0] ------- [5:0 0:0 32 0] [28 0] 0 0
s 1.462189964 _5_ RTR  --- 79 ack 60 [0 0 0 0] ------- [5:0 0:0 32 0] [28 0] 0 0
r 1.472175849 _5_ AGT  --- 55 tcp 1060 [13a 5 0 800] ------- [0:0 5:0 32 5] [29 0] 1 0
s 1.472175849 _5_ AGT  --- 80 ack 40 [0 0 0 0] ------- [5:0 0:0 32 0] [29 0] 0 0
r 1.472175849 _5_ RTR  --- 80 ack 40 [0 0 0 0] ------- [5:0 0:0 32 0] [29 0] 0 0
s 1.472175849 _5_ RTR  --- 80 ack 60 [0 0 0 0] ------- [5:0 0:0 32 0] [29 0] 0 0
r 1.482221735 _5_ AGT  --- 56 tcp 1060 [13a 5 0 800] ------- [0:0 5:0 32 5] [30 0] 1 0
s 1.482221735 _5_ AGT  --- 81 ack 40 [0 0 0 0] ------- [5:0 0:0 32 0] [30 0] 0 0
r 1.482221735 _5_ RTR  --- 81 ack 40 [0 0 0 0] ------- [5:0 0:0 32 0] [30 0] 0 0
s 1.482221735 _5_ RTR  --- 81 ack 60 [0 0 0 0] ------- [5:0 0:0 32 0] [30 0] 0 0
r 1.492727620 _5_ AGT  --- 57 tcp 1060 [13a 5 0 800] ------- [0:0 5:0 32 5] [31 0] 1 0
s 1.492727620 _5_ AGT  --- 82 ack 40 [0 0 0 0] ------- [5:0 0:0 32 0] [31 0] 0 0
r 1.492727620 _5_ RTR  --- 82 ack 40 [0 0 0 0] ------- [5:0 0:0 32 0] [31 0] 0 0
s 1.492727620 _5_ RTR  --- 82 ack 60 [0 0 0 0] ------- [5:0 0:0 32 0] [31 0] 0 0
r 1.494993035 _0_ AGT  --- 72 ack 60 [13a 0 5 800] ------- [5:0 0:0 32 0] [23 0] 1 0
s 1.494993035 _0_ AGT  --- 83 tcp 1040 [0 0 0 0] ------- [0:0 5:0 32 0] [43 0] 0 0
r 1.494993035 _0_ RTR  --- 83 tcp 1040 [0 0 0 0] ------- [0:0 5:0 32 0] [43 0] 0 0
s 1.494993035 _0_ RTR  --- 83 tcp 1060 [0 0 0 0] ------- [0:0 5:0 32 5] [43 0] 0 0
r 1.505318449 _5_ AGT  --- 58 tcp 1060 [13a 5 0 800] ------- [0:0 5:0 32 5] [32 0] 1 0
s 1.505318449 _5_ AGT  --- 84 ack 40 [0 0 0 0] ------- [5:0 0:0 32 0] [32 0] 0 0
r 1.505318449 _5_ RTR  --- 84 ack 40 [0 0 0 0] ------- [5:0 0:0 32 0] [32 0] 0 0