V -t * -v 1.0a5 -a 0
A -t * -n 1 -p 0 -o 0x7fffffff -c 30 -a 1
A -t * -h 1 -m 1073741823 -s 0
c -t * -i 1 -n Blue
c -t * -i 2 -n Red
n -t * -a 4 -s 4 -S UP -v circle -c black -i black
n -t * -a 0 -s 0 -S UP -v circle -c black -i black
n -t * -a 1 -s 1 -S UP -v circle -c black -i black
n -t * -a 2 -s 2 -S UP -v circle -c black -i black
n -t * -a 3 -s 3 -S UP -v circle -c black -i black
l -t * -s 3 -d 4 -S UP -r 500000 -D 0.050000000000000003 -c black
l -t * -s 0 -d 1 -S UP -r 500000 -D 0.050000000000000003 -c black -o left
l -t * -s 0 -d 2 -S UP -r 500000 -D 0.050000000000000003 -c black -o right
l -t * -s 0 -d 3 -S UP -r 500000 -D 0.050000000000000003 -c black -o up
l -t * -s 0 -d 4 -S UP -r 500000 -D 0.050000000000000003 -c black -o down
+ -t 0.000169788487334637 -s 0 -d 1 -p rtProtoDV -e 5 -c 0 -i 0 -a 0 -x {0.2 1.1 -1 ------- null}
- -t 0.000169788487334637 -s 0 -d 1 -p rtProtoDV -e 5 -c 0 -i 0 -a 0 -x {0.2 1.1 -1 ------- null}
h -t 0.000169788487334637 -s 0 -d 1 -p rtProtoDV -e 5 -c 0 -i 0 -a 0 -x {0.2 1.1 -1 ------- null}
+ -t 0.000169788487334637 -s 0 -d 2 -p rtProtoDV -e 5 -c 0 -i 1 -a 0 -x {0.2 2.1 -1 ------- null}
- -t 0.000169788487334637 -s 0 -d 2 -p rtProtoDV -e 5 -c 0 -i 1 -a 0 -x {0.2 2.1 -1 ------- null}
h -t 0.000169788487334637 -s 0 -d 2 -p rtProtoDV -e 5 -c 0 -i 1 -a 0 -x {0.2 2.1 -1 ------- null}
+ -t 0.000169788487334637 -s 0 -d 3 -p rtProtoDV -e 5 -c 0 -i 2 -a 0 -x {0.2 3.1 -1 ------- null}
- -t 0.000169788487334637 -s 0 -d 3 -p rtProtoDV -e 5 -c 0 -i 2 -a 0 -x {0.2 3.1 -1 ------- null}
h -t 0.000169788487334637 -s 0 -d 3 -p rtProtoDV -e 5 -c 0 -i 2 -a 0 -x {0.2 3.1 -1 ------- null}
+ -t 0.000169788487334637 -s 0 -d 4 -p rtProtoDV -e 5 -c 0 -i 3 -a 0 -x {0.2 4.2 -1 ------- null}
- -t 0.000169788487334637 -s 0 -d 4 -p rtProtoDV -e 5 -c 0 -i 3 -a 0 -x {0.2 4.2 -1 ------- null}
h -t 0.000169788487334637 -s 0 -d 4 -p rtProtoDV -e 5 -c 0 -i 3 -a 0 -x {0.2 4.2 -1 ------- null}
+ -t 0.00710233021858257 -s 2 -d 0 -p rtProtoDV -e 5 -c 0 -i 4 -a 0 -x {2.1 0.2 -1 ------- null}
- -t 0.00710233021858257 -s 2 -d 0 -p rtProtoDV -e 5 -c 0 -i 4 -a 0 -x {2.1 0.2 -1 ------- null}
h -t 0.00710233021858257 -s 2 -d 0 -p rtProtoDV -e 5 -c 0 -i 4 -a 0 -x {2.1 0.2 -1 ------- null}
+ -t 0.04406133552271 -s 3 -d 0 -p rtProtoDV -e 5 -c 0 -i 5 -a 0 -x {3.1 0.2 -1 ------- null}
- -t 0.04406133552271 -s 3 -d 0 -p rtProtoDV -e 5 -c 0 -i 5 -a 0 -x {3.1 0.2 -1 ------- null}
h -t 0.04406133552271 -s 3 -d 0 -p rtProtoDV -e 5 -c 0 -i 5 -a 0 -x {3.1 0.2 -1 ------- null}
+ -t 0.04406133552271 -s 3 -d 4 -p rtProtoDV -e 5 -c 0 -i 6 -a 0 -x {3.1 4.2 -1 ------- null}
- -t 0.04406133552271 -s 3 -d 4 -p rtProtoDV -e 5 -c 0 -i 6 -a 0 -x {3.1 4.2 -1 ------- null}
h -t 0.04406133552271 -s 3 -d 4 -p rtProtoDV -e 5 -c 0 -i 6 -a 0 -x {3.1 4.2 -1 ------- null}
r -t 0.0502497884873346 -s 0 -d 1 -p rtProtoDV -e 5 -c 0 -i 0 -a 0 -x {0.2 1.1 -1 ------- null}
+ -t 0.0502497884873346 -s 1 -d 0 -p rtProtoDV -e 5 -c 0 -i 7 -a 0 -x {1.1 0.2 -1 ------- null}
- -t 0.0502497884873346 -s 1 -d 0 -p rtProtoDV -e 5 -c 0 -i 7 -a 0 -x {1.1 0.2 -1 ------- null}
h -t 0.0502497884873346 -s 1 -d 0 -p rtProtoDV -e 5 -c 0 -i 7 -a 0 -x {1.1 0.2 -1 ------- null}
r -t 0.0502497884873346 -s 0 -d 2 -p rtProtoDV -e 5 -c 0 -i 1 -a 0 -x {0.2 2.1 -1 ------- null}
+ -t 0.0502497884873346 -s 2 -d 0 -p rtProtoDV -e 5 -c 0 -i 8 -a 0 -x {2.1 0.2 -1 ------- null}
- -t 0.0502497884873346 -s 2 -d 0 -p rtProtoDV -e 5 -c 0 -i 8 -a 0 -x {2.1 0.2 -1 ------- null}
h -t 0.0502497884873346 -s 2 -d 0 -p rtProtoDV -e 5 -c 0 -i 8 -a 0 -x {2.1 0.2 -1 ------- null}
r -t 0.0502497884873346 -s 0 -d 3 -p rtProtoDV -e 5 -c 0 -i 2 -a 0 -x {0.2 3.1 -1 ------- null}
+ -t 0.0502497884873346 -s 3 -d 0 -p rtProtoDV -e 5 -c 0 -i 9 -a 0 -x {3.1 0.2 -1 ------- null}
- -t 0.0502497884873346 -s 3 -d 0 -p rtProtoDV -e 5 -c 0 -i 9 -a 0 -x {3.1 0.2 -1 ------- null}
h -t 0.0502497884873346 -s 3 -d 0 -p rtProtoDV -e 5 -c 0 -i 9 -a 0 -x {3.1 0.2 -1 ------- null}
+ -t 0.0502497884873346 -s 3 -d 4 -p rtProtoDV -e 5 -c 0 -i 10 -a 0 -x {3.1 4.2 -1 ------- null}
- -t 0.0502497884873346 -s 3 -d 4 -p rtProtoDV -e 5 -c 0 -i 10 -a 0 -x {3.1 4.2 -1 ------- null}
h -t 0.0502497884873346 -s 3 -d 4 -p rtProtoDV -e 5 -c 0 -i 10 -a 0 -x {3.1 4.2 -1 ------- null}
r -t 0.0502497884873346 -s 0 -d 4 -p rtProtoDV -e 5 -c 0 -i 3 -a 0 -x {0.2 4.2 -1 ------- null}
+ -t 0.0502497884873346 -s 4 -d 0 -p rtProtoDV -e 5 -c 0 -i 11 -a 0 -x {4.2 0.2 -1 ------- null}
- -t 0.0502497884873346 -s 4 -d 0 -p rtProtoDV -e 5 -c 0 -i 11 -a 0 -x {4.2 0.2 -1 ------- null}
h -t 0.0502497884873346 -s 4 -d 0 -p rtProtoDV -e 5 -c 0 -i 11 -a 0 -x {4.2 0.2 -1 ------- null}
+ -t 0.0502497884873346 -s 4 -d 3 -p rtProtoDV -e 5 -c 0 -i 12 -a 0 -x {4.2 3.1 -1 ------- null}
- -t 0.0502497884873346 -s 4 -d 3 -p rtProtoDV -e 5 -c 0 -i 12 -a 0 -x {4.2 3.1 -1 ------- null}
h -t 0.0502497884873346 -s 4 -d 3 -p rtProtoDV -e 5 -c 0 -i 12 -a 0 -x {4.2 3.1 -1 ------- null}
r -t 0.0571823302185826 -s 2 -d 0 -p rtProtoDV -e 5 -c 0 -i 4 -a 0 -x {2.1 0.2 -1 ------- null}
r -t 0.09414133552271 -s 3 -d 0 -p rtProtoDV -e 5 -c 0 -i 5 -a 0 -x {3.1 0.2 -1 ------- null}
r -t 0.09414133552271 -s 3 -d 4 -p rtProtoDV -e 5 -c 0 -i 6 -a 0 -x {3.1 4.2 -1 ------- null}
+ -t 0.1 -s 0 -d 4 -p tcp -e 40 -c 1 -i 13 -a 1 -x {0.0 4.0 0 ------- null}
- -t 0.1 -s 0 -d 4 -p tcp -e 40 -c 1 -i 13 -a 1 -x {0.0 4.0 0 ------- null}
h -t 0.1 -s 0 -d 4 -p tcp -e 40 -c 1 -i 13 -a 1 -x {0.0 4.0 -1 ------- null}
r -t 0.100329788487335 -s 1 -d 0 -p rtProtoDV -e 5 -c 0 -i 7 -a 0 -x {1.1 0.2 -1 ------- null}
r -t 0.100329788487335 -s 2 -d 0 -p rtProtoDV -e 5 -c 0 -i 8 -a 0 -x {2.1 0.2 -1 ------- null}
r -t 0.100329788487335 -s 3 -d 0 -p rtProtoDV -e 5 -c 0 -i 9 -a 0 -x {3.1 0.2 -1 ------- null}
r -t 0.100329788487335 -s 3 -d 4 -p rtProtoDV -e 5 -c 0 -i 10 -a 0 -x {3.1 4.2 -1 ------- null}
r -t 0.100329788487335 -s 4 -d 0 -p rtProtoDV -e 5 -c 0 -i 11 -a 0 -x {4.2 0.2 -1 ------- null}
r -t 0.100329788487335 -s 4 -d 3 -p rtProtoDV -e 5 -c 0 -i 12 -a 0 -x {4.2 3.1 -1 ------- null}
r -t 0.15064 -s 0 -d 4 -p tcp -e 40 -c 1 -i 13 -a 1 -x {0.0 4.0 0 ------- null}
+ -t 0.15064 -s 4 -d 0 -p ack -e 40 -c 1 -i 14 -a 1 -x {4.0 0.0 0 ------- null}
- -t 0.15064 -s 4 -d 0 -p ack -e 40 -c 1 -i 14 -a 1 -x {4.0 0.0 0 ------- null}
h -t 0.15064 -s 4 -d 0 -p ack -e 40 -c 1 -i 14 -a 1 -x {4.0 0.0 -1 ------- null}
r -t 0.20128 -s 4 -d 0 -p ack -e 40 -c 1 -i 14 -a 1 -x {4.0 0.0 0 ------- null}
+ -t 0.20128 -s 0 -d 4 -p tcp -e 1040 -c 1 -i 15 -a 1 -x {0.0 4.0 1 ------- null}
- -t 0.20128 -s 0 -d 4 -p tcp -e 1040 -c 1 -i 15 -a 1 -x {0.0 4.0 1 ------- null}
h -t 0.20128 -s 0 -d 4 -p tcp -e 1040 -c 1 -i 15 -a 1 -x {0.0 4.0 -1 ------- null}
+ -t 0.20128 -s 0 -d 4 -p tcp -e 1040 -c 1 -i 16 -a 1 -x {0.0 4.0 2 ------- null}
- -t 0.21792 -s 0 -d 4 -p tcp -e 1040 -c 1 -i 16 -a 1 -x {0.0 4.0 2 ------- null}
h -t 0.21792 -s 0 -d 4 -p tcp -e 1040 -c 1 -i 16 -a 1 -x {0.0 4.0 -1 ------- null}
+ -t 0.22058669092161 -s 4 -d 0 -p rtProtoDV -e 5 -c 0 -i 17 -a 0 -x {4.2 0.2 -1 ------- null}
- -t 0.22058669092161 -s 4 -d 0 -p rtProtoDV -e 5 -c 0 -i 17 -a 0 -x {4.2 0.2 -1 ------- null}
h -t 0.22058669092161 -s 4 -d 0 -p rtProtoDV -e 5 -c 0 -i 17 -a 0 -x {4.2 0.2 -1 ------- null}
+ -t 0.22058669092161 -s 4 -d 3 -p rtProtoDV -e 5 -c 0 -i 18 -a 0 -x {4.2 3.1 -1 ------- null}
- -t 0.22058669092161 -s 4 -d 3 -p rtProtoDV -e 5 -c 0 -i 18 -a 0 -x {4.2 3.1 -1 ------- null}
h -t 0.22058669092161 -s 4 -d 3 -p rtProtoDV -e 5 -c 0 -i 18 -a 0 -x {4.2 3.1 -1 ------- null}
r -t 0.26792 -s 0 -d 4 -p tcp -e 1040 -c 1 -i 15 -a 1 -x {0.0 4.0 1 ------- null}
r -t 0.27066669092161 -s 4 -d 0 -p rtProtoDV -e 5 -c 0 -i 17 -a 0 -x {4.2 0.2 -1 ------- null}
r -t 0.27066669092161 -s 4 -d 3 -p rtProtoDV -e 5 -c 0 -i 18 -a 0 -x {4.2 3.1 -1 ------- null}
+ -t 0.277940357931862 -s 1 -d 0 -p rtProtoDV -e 5 -c 0 -i 19 -a 0 -x {1.1 0.2 -1 ------- null}
- -t 0.277940357931862 -s 1 -d 0 -p rtProtoDV -e 5 -c 0 -i 19 -a 0 -x {1.1 0.2 -1 ------- null}
h -t 0.277940357931862 -s 1 -d 0 -p rtProtoDV -e 5 -c 0 -i 19 -a 0 -x {1.1 0.2 -1 ------- null}
r -t 0.28456 -s 0 -d 4 -p tcp -e 1040 -c 1 -i 16 -a 1 -x {0.0 4.0 2 ------- null}
+ -t 0.28456 -s 4 -d 0 -p ack -e 40 -c 1 -i 20 -a 1 -x {4.0 0.0 2 ------- null}
- -t 0.28456 -s 4 -d 0 -p ack -e 40 -c 1 -i 20 -a 1 -x {4.0 0.0 2 ------- null}
h -t 0.28456 -s 4 -d 0 -p ack -e 40 -c 1 -i 20 -a 1 -x {4.0 0.0 -1 ------- null}
r -t 0.328020357931862 -s 1 -d 0 -p rtProtoDV -e 5 -c 0 -i 19 -a 0 -x {1.1 0.2 -1 ------- null}
r -t 0.3352 -s 4 -d 0 -p ack -e 40 -c 1 -i 20 -a 1 -x {4.0 0.0 2 ------- null}
+ -t 0.3352 -s 0 -d 4 -p tcp -e 1040 -c 1 -i 21 -a 1 -x {0.0 4.0 3 ------- null}
- -t 0.3352 -s 0 -d 4 -p tcp -e 1040 -c 1 -i 21 -a 1 -x {0.0 4.0 3 ------- null}
h -t 0.3352 -s 0 -d 4 -p tcp -e 1040 -c 1 -i 21 -a 1 -x {0.0 4.0 -1 ------- null}
+ -t 0.3352 -s 0 -d 4 -p tcp -e 1040 -c 1 -i 22 -a 1 -x {0.0 4.0 4 ------- null}
+ -t 0.3352 -s 0 -d 4 -p tcp -e 1040 -c 1 -i 23 -a 1 -x {0.0 4.0 5 ------- null}
- -t 0.35184 -s 0 -d 4 -p tcp -e 1040 -c 1 -i 22 -a 1 -x {0.0 4.0 4 ------- null}
h -t 0.35184 -s 0 -d 4 -p tcp -e 1040 -c 1 -i 22 -a 1 -x {0.0 4.0 -1 ------- null}
- -t 0.36848 -s 0 -d 4 -p tcp -e 1040 -c 1 -i 23 -a 1 -x {0.0 4.0 5 ------- null}
h -t 0.36848 -s 0 -d 4 -p tcp -e 1040 -c 1 -i 23 -a 1 -x {0.0 4.0 -1 ------- null}
r -t 0.40184 -s 0 -d 4 -p tcp -e 1040 -c 1 -i 21 -a 1 -x {0.0 4.0 3 ------- null}
r -t 0.41848 -s 0 -d 4 -p tcp -e 1040 -c 1 -i 22 -a 1 -x {0.0 4.0 4 ------- null}
+ -t 0.41848 -s 4 -d 0 -p ack -e 40 -c 1 -i 24 -a 1 -x {4.0 0.0 4 ------- null}
- -t 0.41848 -s 4 -d 0 -p ack -e 40 -c 1 -i 24 -a 1 -x {4.0 0.0 4 ------- null}
h -t 0.41848 -s 4 -d 0 -p ack -e 40 -c 1 -i 24 -a 1 -x {4.0 0.0 -1 ------- null}
r -t 0.43512 -s 0 -d 4 -p tcp -e 1040 -c 1 -i 23 -a 1 -x {0.0 4.0 5 ------- null}
r -t 0.46912 -s 4 -d 0 -p ack -e 40 -c 1 -i 24 -a 1 -x {4.0 0.0 4 ------- null}
+ -t 0.46912 -s 0 -d 4 -p tcp -e 1040 -c 1 -i 25 -a 1 -x {0.0 4.0 6 ------- null}
- -t 0.46912 -s 0 -d 4 -p tcp -e 1040 -c 1 -i 25 -a 1 -x {0.0 4.0 6 ------- null}
h -t 0.46912 -s 0 -d 4 -p tcp -e 1040 -c 1 -i 25 -a 1 -x {0.0 4.0 -1 ------- null}
+ -t 0.46912 -s 0 -d 4 -p tcp -e 1040 -c 1 -i 26 -a 1 -x {0.0 4.0 7 ------- null}
+ -t 0.46912 -s 0 -d 4 -p tcp -e 1040 -c 1 -i 27 -a 1 -x {0.0 4.0 8 ------- null}
- -t 0.48576 -s 0 -d 4 -p tcp -e 1040 -c 1 -i 26 -a 1 -x {0.0 4.0 7 ------- null}
h -t 0.48576 -s 0 -d 4 -p tcp -e 1040 -c 1 -i 26 -a 1 -x {0.0 4.0 -1 ------- null}
- -t 0.5024 -s 0 -d 4 -p tcp -e 1040 -c 1 -i 27 -a 1 -x {0.0 4.0 8 ------- null}
h -t 0.5024 -s 0 -d 4 -p tcp -e 1040 -c 1 -i 27 -a 1 -x {0.0 4.0 -1 ------- null}
+ -t 0.53512 -s 4 -d 0 -p ack -e 40 -c 1 -i 28 -a 1 -x {4.0 0.0 5 ------- null}
- -t 0.53512 -s 4 -d 0 -p ack -e 40 -c 1 -i 28 -a 1 -x {4.0 0.0 5 ------- null}
h -t 0.53512 -s 4 -d 0 -p ack -e 40 -c 1 -i 28 -a 1 -x {4.0 0.0 -1 ------- null}
r -t 0.53576 -s 0 -d 4 -p tcp -e 1040 -c 1 -i 25 -a 1 -x {0.0 4.0 6 ------- null}
r -t 0.5524 -s 0 -d 4 -p tcp -e 1040 -c 1 -i 26 -a 1 -x {0.0 4.0 7 ------- null}
+ -t 0.5524 -s 4 -d 0 -p ack -e 40 -c 1 -i 29 -a 1 -x {4.0 0.0 7 ------- null}
- -t 0.5524 -s 4 -d 0 -p ack -e 40 -c 1 -i 29 -a 1 -x {4.0 0.0 7 ------- null}
h -t 0.5524 -s 4 -d 0 -p ack -e 40 -c 1 -i 29 -a 1 -x {4.0 0.0 -1 ------- null}
r -t 0.56904 -s 0 -d 4 -p tcp -e 1040 -c 1 -i 27 -a 1 -x {0.0 4.0 8 ------- null}
r -t 0.58576 -s 4 -d 0 -p ack -e 40 -c 1 -i 28 -a 1 -x {4.0 0.0 5 ------- null}
+ -t 0.58576 -s 0 -d 4 -p tcp -e 1040 -c 1 -i 30 -a 1 -x {0.0 4.0 9 ------- null}
- -t 0.58576 -s 0 -d 4 -p tcp -e 1040 -c 1 -i 30 -a 1 -x {0.0 4.0 9 ------- null}
h -t 0.58576 -s 0 -d 4 -p tcp -e 1040 -c 1 -i 30 -a 1 -x {0.0 4.0 -1 ------- null}
+ -t 0.58576 -s 0 -d 4 -p tcp -e 1040 -c 1 -i 31 -a 1 -x {0.0 4.0 10 ------- null}
- -t 0.6024 -s 0 -d 4 -p tcp -e 1040 -c 1 -i 31 -a 1 -x {0.0 4.0 10 ------- null}
h -t 0.6024 -s 0 -d 4 -p tcp -e 1040 -c 1 -i 31 -a 1 -x {0.0 4.0 -1 ------- null}
r -t 0.60304 -s 4 -d 0 -p ack -e 40 -c 1 -i 29 -a 1 -x {4.0 0.0 7 ------- null}
+ -t 0.60304 -s 0 -d 4 -p tcp -e 1040 -c 1 -i 32 -a 1 -x {0.0 4.0 11 ------- null}
+ -t 0.60304 -s 0 -d 4 -p tcp -e 1040 -c 1 -i 33 -a 1 -x {0.0 4.0 12 ------- null}
+ -t 0.60304 -s 0 -d 4 -p tcp -e 1040 -c 1 -i 34 -a 1 -x {0.0 4.0 13 ------- null}
- -t 0.61904 -s 0 -d 4 -p tcp -e 1040 -c 1 -i 32 -a 1 -x {0.0 4.0 11 ------- null}
h -t 0.61904 -s 0 -d 4 -p tcp -e 1040 -c 1 -i 32 -a 1 -x {0.0 4.0 -1 ------- null}
- -t 0.63568 -s 0 -d 4 -p tcp -e 1040 -c 1 -i 33 -a 1 -x {0.0 4.0 12 ------- null}
h -t 0.63568 -s 0 -d 4 -p tcp -e 1040 -c 1 -i 33 -a 1 -x {0.0 4.0 -1 ------- null}
- -t 0.65232 -s 0 -d 4 -p tcp -e 1040 -c 1 -i 34 -a 1 -x {0.0 4.0 13 ------- null}
h -t 0.65232 -s 0 -d 4 -p tcp -e 1040 -c 1 -i 34 -a 1 -x {0.0 4.0 -1 ------- null}
r -t 0.6524 -s 0 -d 4 -p tcp -e 1040 -c 1 -i 30 -a 1 -x {0.0 4.0 9 ------- null}
+ -t 0.6524 -s 4 -d 0 -p ack -e 40 -c 1 -i 35 -a 1 -x {4.0 0.0 9 ------- null}
- -t 0.6524 -s 4 -d 0 -p ack -e 40 -c 1 -i 35 -a 1 -x {4.0 0.0 9 ------- null}
h -t 0.6524 -s 4 -d 0 -p ack -e 40 -c 1 -i 35 -a 1 -x {4.0 0.0 -1 ------- null}
r -t 0.66904 -s 0 -d 4 -p tcp -e 1040 -c 1 -i 31 -a 1 -x {0.0 4.0 10 ------- null}
r -t 0.68568 -s 0 -d 4 -p tcp -e 1040 -c 1 -i 32 -a 1 -x {0.0 4.0 11 ------- null}
+ -t 0.68568 -s 4 -d 0 -p ack -e 40 -c 1 -i 36 -a 1 -x {4.0 0.0 11 ------- null}
- -t 0.68568 -s 4 -d 0 -p ack -e 40 -c 1 -i 36 -a 1 -x {4.0 0.0 11 ------- null}
h -t 0.68568 -s 4 -d 0 -p ack -e 40 -c 1 -i 36 -a 1 -x {4.0 0.0 -1 ------- null}
r -t 0.70232 -s 0 -d 4 -p tcp -e 1040 -c 1 -i 33 -a 1 -x {0.0 4.0 12 ------- null}
r -t 0.70304 -s 4 -d 0 -p ack -e 40 -c 1 -i 35 -a 1 -x {4.0 0.0 9 ------- null}
+ -t 0.70304 -s 0 -d 4 -p tcp -e 1040 -c 1 -i 37 -a 1 -x {0.0 4.0 14 ------- null}
- -t 0.70304 -s 0 -d 4 -p tcp -e 1040 -c 1 -i 37 -a 1 -x {0.0 4.0 14 ------- null}
h -t 0.70304 -s 0 -d 4 -p tcp -e 1040 -c 1 -i 37 -a 1 -x {0.0 4.0 -1 ------- null}
+ -t 0.70304 -s 0 -d 4 -p tcp -e 1040 -c 1 -i 38 -a 1 -x {0.0 4.0 15 ------- null}
+ -t 0.70304 -s 0 -d 4 -p tcp -e 1040 -c 1 -i 39 -a 1 -x {0.0 4.0 16 ------- null}
r -t 0.71896 -s 0 -d 4 -p tcp -e 1040 -c 1 -i 34 -a 1 -x {0.0 4.0 13 ------- null}
+ -t 0.71896 -s 4 -d 0 -p ack -e 40 -c 1 -i 40 -a 1 -x {4.0 0.0 13 ------- null}
- -t 0.71896 -s 4 -d 0 -p ack -e 40 -c 1 -i 40 -a 1 -x {4.0 0.0 13 ------- null}
h -t 0.71896 -s 4 -d 0 -p ack -e 40 -c 1 -i 40 -a 1 -x {4.0 0.0 -1 ------- null}
- -t 0.71968 -s 0 -d 4 -p tcp -e 1040 -c 1 -i 38 -a 1 -x {0.0 4.0 15 ------- null}
h -t 0.71968 -s 0 -d 4 -p tcp -e 1040 -c 1 -i 38 -a 1 -x {0.0 4.0 -1 ------- null}
r -t 0.73632 -s 4 -d 0 -p ack -e 40 -c 1 -i 36 -a 1 -x {4.0 0.0 11 ------- null}
+ -t 0.73632 -s 0 -d 4 -p tcp -e 1040 -c 1 -i 41 -a 1 -x {0.0 4.0 17 ------- null}
+ -t 0.73632 -s 0 -d 4 -p tcp -e 1040 -c 1 -i 42 -a 1 -x {0.0 4.0 18 ------- null}
+ -t 0.73632 -s 0 -d 4 -p tcp -e 1040 -c 1 -i 43 -a 1 -x {0.0 4.0 19 ------- null}
- -t 0.73632 -s 0 -d 4 -p tcp -e 1040 -c 1 -i 39 -a 1 -x {0.0 4.0 16 ------- null}
h -t 0.73632 -s 0 -d 4 -p tcp -e 1040 -c 1 -i 39 -a 1 -x {0.0 4.0 -1 ------- null}
- -t 0.75296 -s 0 -d 4 -p tcp -e 1040 -c 1 -i 41 -a 1 -x {0.0 4.0 17 ------- null}
h -t 0.75296 -s 0 -d 4 -p tcp -e 1040 -c 1 -i 41 -a 1 -x {0.0 4.0 -1 ------- null}
r -t 0.7696 -s 4 -d 0 -p ack -e 40 -c 1 -i 40 -a 1 -x {4.0 0.0 13 ------- null}
+ -t 0.7696 -s 0 -d 4 -p tcp -e 1040 -c 1 -i 44 -a 1 -x {0.0 4.0 20 ------- null}
+ -t 0.7696 -s 0 -d 4 -p tcp -e 1040 -c 1 -i 45 -a 1 -x {0.0 4.0 21 ------- null}
+ -t 0.7696 -s 0 -d 4 -p tcp -e 1040 -c 1 -i 46 -a 1 -x {0.0 4.0 22 ------- null}
- -t 0.7696 -s 0 -d 4 -p tcp -e 1040 -c 1 -i 42 -a 1 -x {0.0 4.0 18 ------- null}
h -t 0.7696 -s 0 -d 4 -p tcp -e 1040 -c 1 -i 42 -a 1 -x {0.0 4.0 -1 ------- null}
r -t 0.76968 -s 0 -d 4 -p tcp -e 1040 -c 1 -i 37 -a 1 -x {0.0 4.0 14 ------- null}
- -t 0.78624 -s 0 -d 4 -p tcp -e 1040 -c 1 -i 43 -a 1 -x {0.0 4.0 19 ------- null}
h -t 0.78624 -s 0 -d 4 -p tcp -e 1040 -c 1 -i 43 -a 1 -x {0.0 4.0 -1 ------- null}
r -t 0.78632 -s 0 -d 4 -p tcp -e 1040 -c 1 -i 38 -a 1 -x {0.0 4.0 15 ------- null}
+ -t 0.78632 -s 4 -d 0 -p ack -e 40 -c 1 -i 47 -a 1 -x {4.0 0.0 15 ------- null}
- -t 0.78632 -s 4 -d 0 -p ack -e 40 -c 1 -i 47 -a 1 -x {4.0 0.0 15 ------- null}
h -t 0.78632 -s 4 -d 0 -p ack -e 40 -c 1 -i 47 -a 1 -x {4.0 0.0 -1 ------- null}
- -t 0.80288 -s 0 -d 4 -p tcp -e 1040 -c 1 -i 44 -a 1 -x {0.0 4.0 20 ------- null}
h -t 0.80288 -s 0 -d 4 -p tcp -e 1040 -c 1 -i 44 -a 1 -x {0.0 4.0 -1 ------- null}
r -t 0.80296 -s 0 -d 4 -p tcp -e 1040 -c 1 -i 39 -a 1 -x {0.0 4.0 16 ------- null}
- -t 0.81952 -s 0 -d 4 -p tcp -e 1040 -c 1 -i 45 -a 1 -x {0.0 4.0 21 ------- null}
h -t 0.81952 -s 0 -d 4 -p tcp -e 1040 -c 1 -i 45 -a 1 -x {0.0 4.0 -1 ------- null}
r -t 0.8196 -s 0 -d 4 -p tcp -e 1040 -c 1 -i 41 -a 1 -x {0.0 4.0 17 ------- null}
+ -t 0.8196 -s 4 -d 0 -p ack -e 40 -c 1 -i 48 -a 1 -x {4.0 0.0 17 ------- null}
- -t 0.8196 -s 4 -d 0 -p ack -e 40 -c 1 -i 48 -a 1 -x {4.0 0.0 17 ------- null}
h -t 0.8196 -s 4 -d 0 -p ack -e 40 -c 1 -i 48 -a 1 -x {4.0 0.0 -1 ------- null}
- -t 0.83616 -s 0 -d 4 -p tcp -e 1040 -c 1 -i 46 -a 1 -x {0.0 4.0 22 ------- null}
h -t 0.83616 -s 0 -d 4 -p tcp -e 1040 -c 1 -i 46 -a 1 -x {0.0 4.0 -1 ------- null}
r -t 0.83624 -s 0 -d 4 -p tcp -e 1040 -c 1 -i 42 -a 1 -x {0.0 4.0 18 ------- null}
r -t 0.83696 -s 4 -d 0 -p ack -e 40 -c 1 -i 47 -a 1 -x {4.0 0.0 15 ------- null}
+ -t 0.83696 -s 0 -d 4 -p tcp -e 1040 -c 1 -i 49 -a 1 -x {0.0 4.0 23 ------- null}
+ -t 0.83696 -s 0 -d 4 -p tcp -e 1040 -c 1 -i 50 -a 1 -x {0.0 4.0 24 ------- null}
+ -t 0.83696 -s 0 -d 4 -p tcp -e 1040 -c 1 -i 51 -a 1 -x {0.0 4.0 25 ------- null}
- -t 0.8528 -s 0 -d 4 -p tcp -e 1040 -c 1 -i 49 -a 1 -x {0.0 4.0 23 ------- null}
h -t 0.8528 -s 0 -d 4 -p tcp -e 1040 -c 1 -i 49 -a 1 -x {0.0 4.0 -1 ------- null}
r -t 0.85288 -s 0 -d 4 -p tcp -e 1040 -c 1 -i 43 -a 1 -x {0.0 4.0 19 ------- null}
+ -t 0.85288 -s 4 -d 0 -p ack -e 40 -c 1 -i 52 -a 1 -x {4.0 0.0 19 ------- null}
- -t 0.85288 -s 4 -d 0 -p ack -e 40 -c 1 -i 52 -a 1 -x {4.0 0.0 19 ------- null}
h -t 0.85288 -s 4 -d 0 -p ack -e 40 -c 1 -i 52 -a 1 -x {4.0 0.0 -1 ------- null}
- -t 0.86944 -s 0 -d 4 -p tcp -e 1040 -c 1 -i 50 -a 1 -x {0.0 4.0 24 ------- null}
h -t 0.86944 -s 0 -d 4 -p tcp -e 1040 -c 1 -i 50 -a 1 -x {0.0 4.0 -1 ------- null}
r -t 0.86952 -s 0 -d 4 -p tcp -e 1040 -c 1 -i 44 -a 1 -x {0.0 4.0 20 ------- null}
r -t 0.87024 -s 4 -d 0 -p ack -e 40 -c 1 -i 48 -a 1 -x {4.0 0.0 17 ------- null}
+ -t 0.87024 -s 0 -d 4 -p tcp -e 1040 -c 1 -i 53 -a 1 -x {0.0 4.0 26 ------- null}
+ -t 0.87024 -s 0 -d 4 -p tcp -e 1040 -c 1 -i 54 -a 1 -x {0.0 4.0 27 ------- null}
+ -t 0.87024 -s 0 -d 4 -p tcp -e 1040 -c 1 -i 55 -a 1 -x {0.0 4.0 28 ------- null}
- -t 0.88608 -s 0 -d 4 -p tcp -e 1040 -c 1 -i 51 -a 1 -x {0.0 4.0 25 ------- null}
h -t 0.88608 -s 0 -d 4 -p tcp -e 1040 -c 1 -i 51 -a 1 -x {0.0 4.0 -1 ------- null}
r -t 0.88616 -s 0 -d 4 -p tcp -e 1040 -c 1 -i 45 -a 1 -x {0.0 4.0 21 ------- null}
+ -t 0.88616 -s 4 -d 0 -p ack -e 40 -c 1 -i 56 -a 1 -x {4.0 0.0 21 ------- null}
- -t 0.88616 -s 4 -d 0 -p ack -e 40 -c 1 -i 56 -a 1 -x {4.0 0.0 21 ------- null}
h -t 0.88616 -s 4 -d 0 -p ack -e 40 -c 1 -i 56 -a 1 -x {4.0 0.0 -1 ------- null}
- -t 0.90272 -s 0 -d 4 -p tcp -e 1040 -c 1 -i 53 -a 1 -x {0.0 4.0 26 ------- null}
h -t 0.90272 -s 0 -d 4 -p tcp -e 1040 -c 1 -i 53 -a 1 -x {0.0 4.0 -1 ------- null}
r -t 0.9028 -s 0 -d 4 -p tcp -e 1040 -c 1 -i 46 -a 1 -x {0.0 4.0 22 ------- null}
r -t 0.90352 -s 4 -d 0 -p ack -e 40 -c 1 -i 52 -a 1 -x {4.0 0.0 19 ------- null}
+ -t 0.90352 -s 0 -d 4 -p tcp -e 1040 -c 1 -i 57 -a 1 -x {0.0 4.0 29 ------- null}
+ -t 0.90352 -s 0 -d 4 -p tcp -e 1040 -c 1 -i 58 -a 1 -x {0.0 4.0 30 ------- null}
+ -t 0.90352 -s 0 -d 4 -p tcp -e 1040 -c 1 -i 59 -a 1 -x {0.0 4.0 31 ------- null}
- -t 0.91936 -s 0 -d 4 -p tcp -e 1040 -c 1 -i 54 -a 1 -x {0.0 4.0 27 ------- null}
h -t 0.91936 -s 0 -d 4 -p tcp -e 1040 -c 1 -i 54 -a 1 -x {0.0 4.0 -1 ------- null}
r -t 0.91944 -s 0 -d 4 -p tcp -e 1040 -c 1 -i 49 -a 1 -x {0.0 4.0 23 ------- null}
+ -t 0.91944 -s 4 -d 0 -p ack -e 40 -c 1 -i 60 -a 1 -x {4.0 0.0 23 ------- null}
- -t 0.91944 -s 4 -d 0 -p ack -e 40 -c 1 -i 60 -a 1 -x {4.0 0.0 23 ------- null}
h -t 0.91944 -s 4 -d 0 -p ack -e 40 -c 1 -i 60 -a 1 -x {4.0 0.0 -1 ------- null}
- -t 0.936 -s 0 -d 4 -p tcp -e 1040 -c 1 -i 55 -a 1 -x {0.0 4.0 28 ------- null}
h -t 0.936 -s 0 -d 4 -p tcp -e 1040 -c 1 -i 55 -a 1 -x {0.0 4.0 -1 ------- null}
r -t 0.93608 -s 0 -d 4 -p tcp -e 1040 -c 1 -i 50 -a 1 -x {0.0 4.0 24 ------- null}
r -t 0.9368 -s 4 -d 0 -p ack -e 40 -c 1 -i 56 -a 1 -x {4.0 0.0 21 ------- null}
+ -t 0.9368 -s 0 -d 4 -p tcp -e 1040 -c 1 -i 61 -a 1 -x {0.0 4.0 32 ------- null}
+ -t 0.9368 -s 0 -d 4 -p tcp -e 1040 -c 1 -i 62 -a 1 -x {0.0 4.0 33 ------- null}
+ -t 0.9368 -s 0 -d 4 -p tcp -e 1040 -c 1 -i 63 -a 1 -x {0.0 4.0 34 ------- null}
- -t 0.95264 -s 0 -d 4 -p tcp -e 1040 -c 1 -i 57 -a 1 -x {0.0 4.0 29 ------- null}
h -t 0.95264 -s 0 -d 4 -p tcp -e 1040 -c 1 -i 57 -a 1 -x {0.0 4.0 -1 ------- null}
r -t 0.95272 -s 0 -d 4 -p tcp -e 1040 -c 1 -i 51 -a 1 -x {0.0 4.0 25 ------- null}
+ -t 0.95272 -s 4 -d 0 -p ack -e 40 -c 1 -i 64 -a 1 -x {4.0 0.0 25 ------- null}
- -t 0.95272 -s 4 -d 0 -p ack -e 40 -c 1 -i 64 -a 1 -x {4.0 0.0 25 ------- null}
h -t 0.95272 -s 4 -d 0 -p ack -e 40 -c 1 -i 64 -a 1 -x {4.0 0.0 -1 ------- null}
- -t 0.96928 -s 0 -d 4 -p tcp -e 1040 -c 1 -i 58 -a 1 -x {0.0 4.0 30 ------- null}
h -t 0.96928 -s 0 -d 4 -p tcp -e 1040 -c 1 -i 58 -a 1 -x {0.0 4.0 -1 ------- null}
r -t 0.96936 -s 0 -d 4 -p tcp -e 1040 -c 1 -i 53 -a 1 -x {0.0 4.0 26 ------- null}
r -t 0.97008 -s 4 -d 0 -p ack -e 40 -c 1 -i 60 -a 1 -x {4.0 0.0 23 ------- null}
+ -t 0.97008 -s 0 -d 4 -p tcp -e 1040 -c 1 -i 65 -a 1 -x {0.0 4.0 35 ------- null}
+ -t 0.97008 -s 0 -d 4 -p tcp -e 1040 -c 1 -i 66 -a 1 -x {0.0 4.0 36 ------- null}
+ -t 0.97008 -s 0 -d 4 -p tcp -e 1040 -c 1 -i 67 -a 1 -x {0.0 4.0 37 ------- null}
- -t 0.98592 -s 0 -d 4 -p tcp -e 1040 -c 1 -i 59 -a 1 -x {0.0 4.0 31 ------- null}
h -t 0.98592 -s 0 -d 4 -p tcp -e 1040 -c 1 -i 59 -a 1 -x {0.0 4.0 -1 ------- null}
r -t 0.986 -s 0 -d 4 -p tcp -e 1040 -c 1 -i 54 -a 1 -x {0.0 4.0 27 ------- null}
+ -t 0.986 -s 4 -d 0 -p ack -e 40 -c 1 -i 68 -a 1 -x {4.0 0.0 27 ------- null}
- -t 0.986 -s 4 -d 0 -p ack -e 40 -c 1 -i 68 -a 1 -x {4.0 0.0 27 ------- null}
h -t 0.986 -s 4 -d 0 -p ack -e 40 -c 1 -i 68 -a 1 -x {4.0 0.0 -1 ------- null}
d -t 1 -s 4 -d 0 -p ack -e 40 -c 1 -i 64 -a 1 -x {4.0 0.0 25 ------- null}
d -t 1 -s 4 -d 0 -p ack -e 40 -c 1 -i 68 -a 1 -x {4.0 0.0 27 ------- null}
l -t 1 -s 4 -d 0 -S DOWN
v -t 1 link-down 1 4 0
l -t 1 -s 4 -d 0 -S DOWN
v -t 1 link-down 1 4 0
d -t 1 -s 0 -d 4 -p tcp -e 1040 -c 1 -i 61 -a 1 -x {0.0 4.0 32 ------- null}
d -t 1 -s 0 -d 4 -p tcp -e 1040 -c 1 -i 62 -a 1 -x {0.0 4.0 33 ------- null}
d -t 1 -s 0 -d 4 -p tcp -e 1040 -c 1 -i 63 -a 1 -x {0.0 4.0 34 ------- null}
d -t 1 -s 0 -d 4 -p tcp -e 1040 -c 1 -i 65 -a 1 -x {0.0 4.0 35 ------- null}
d -t 1 -s 0 -d 4 -p tcp -e 1040 -c 1 -i 66 -a 1 -x {0.0 4.0 36 ------- null}
d -t 1 -s 0 -d 4 -p tcp -e 1040 -c 1 -i 67 -a 1 -x {0.0 4.0 37 ------- null}
d -t 1 -s 0 -d 4 -p tcp -e 1040 -c 1 -i 55 -a 1 -x {0.0 4.0 28 ------- null}
d -t 1 -s 0 -d 4 -p tcp -e 1040 -c 1 -i 57 -a 1 -x {0.0 4.0 29 ------- null}
d -t 1 -s 0 -d 4 -p tcp -e 1040 -c 1 -i 58 -a 1 -x {0.0 4.0 30 ------- null}
d -t 1 -s 0 -d 4 -p tcp -e 1040 -c 1 -i 59 -a 1 -x {0.0 4.0 31 ------- null}
l -t 1 -s 0 -d 4 -S DOWN
v -t 1 link-down 1 0 4
l -t 1 -s 0 -d 4 -S DOWN
v -t 1 link-down 1 0 4
+ -t 1 -s 4 -d 3 -p rtProtoDV -e 5 -c 0 -i 69 -a 0 -x {4.2 3.1 -1 ------- null}
- -t 1 -s 4 -d 3 -p rtProtoDV -e 5 -c 0 -i 69 -a 0 -x {4.2 3.1 -1 ------- null}
h -t 1 -s 4 -d 3 -p rtProtoDV -e 5 -c 0 -i 69 -a 0 -x {4.2 3.1 -1 ------- null}
+ -t 1 -s 0 -d 1 -p rtProtoDV -e 5 -c 0 -i 70 -a 0 -x {0.2 1.1 -1 ------- null}
- -t 1 -s 0 -d 1 -p rtProtoDV -e 5 -c 0 -i 70 -a 0 -x {0.2 1.1 -1 ------- null}
h -t 1 -s 0 -d 1 -p rtProtoDV -e 5 -c 0 -i 70 -a 0 -x {0.2 1.1 -1 ------- null}
+ -t 1 -s 0 -d 2 -p rtProtoDV -e 5 -c 0 -i 71 -a 0 -x {0.2 2.1 -1 ------- null}
- -t 1 -s 0 -d 2 -p rtProtoDV -e 5 -c 0 -i 71 -a 0 -x {0.2 2.1 -1 ------- null}
h -t 1 -s 0 -d 2 -p rtProtoDV -e 5 -c 0 -i 71 -a 0 -x {0.2 2.1 -1 ------- null}
+ -t 1 -s 0 -d 3 -p rtProtoDV -e 5 -c 0 -i 72 -a 0 -x {0.2 3.1 -1 ------- null}
- -t 1 -s 0 -d 3 -p rtProtoDV -e 5 -c 0 -i 72 -a 0 -x {0.2 3.1 -1 ------- null}
h -t 1 -s 0 -d 3 -p rtProtoDV -e 5 -c 0 -i 72 -a 0 -x {0.2 3.1 -1 ------- null}
r -t 1.05008 -s 4 -d 3 -p rtProtoDV -e 5 -c 0 -i 69 -a 0 -x {4.2 3.1 -1 ------- null}
r -t 1.05008 -s 0 -d 1 -p rtProtoDV -e 5 -c 0 -i 70 -a 0 -x {0.2 1.1 -1 ------- null}
+ -t 1.05008 -s 1 -d 0 -p rtProtoDV -e 5 -c 0 -i 73 -a 0 -x {1.1 0.2 -1 ------- null}
- -t 1.05008 -s 1 -d 0 -p rtProtoDV -e 5 -c 0 -i 73 -a 0 -x {1.1 0.2 -1 ------- null}
h -t 1.05008 -s 1 -d 0 -p rtProtoDV -e 5 -c 0 -i 73 -a 0 -x {1.1 0.2 -1 ------- null}
r -t 1.05008 -s 0 -d 2 -p rtProtoDV -e 5 -c 0 -i 71 -a 0 -x {0.2 2.1 -1 ------- null}
+ -t 1.05008 -s 2 -d 0 -p rtProtoDV -e 5 -c 0 -i 74 -a 0 -x {2.1 0.2 -1 ------- null}
- -t 1.05008 -s 2 -d 0 -p rtProtoDV -e 5 -c 0 -i 74 -a 0 -x {2.1 0.2 -1 ------- null}
h -t 1.05008 -s 2 -d 0 -p rtProtoDV -e 5 -c 0 -i 74 -a 0 -x {2.1 0.2 -1 ------- null}
r -t 1.05008 -s 0 -d 3 -p rtProtoDV -e 5 -c 0 -i 72 -a 0 -x {0.2 3.1 -1 ------- null}
r -t 1.10016 -s 1 -d 0 -p rtProtoDV -e 5 -c 0 -i 73 -a 0 -x {1.1 0.2 -1 ------- null}
r -t 1.10016 -s 2 -d 0 -p rtProtoDV -e 5 -c 0 -i 74 -a 0 -x {2.1 0.2 -1 ------- null}
+ -t 1.22008 -s 0 -d 3 -p tcp -e 1040 -c 1 -i 75 -a 1 -x {0.0 4.0 24 ---A--- null}
- -t 1.22008 -s 0 -d 3 -p tcp -e 1040 -c 1 -i 75 -a 1 -x {0.0 4.0 24 ---A--- null}
h -t 1.22008 -s 0 -d 3 -p tcp -e 1040 -c 1 -i 75 -a 1 -x {0.0 4.0 -1 ---A--- null}
r -t 1.28672 -s 0 -d 3 -p tcp -e 1040 -c 1 -i 75 -a 1 -x {0.0 4.0 24 ---A--- null}
+ -t 1.28672 -s 3 -d 4 -p tcp -e 1040 -c 1 -i 75 -a 1 -x {0.0 4.0 24 ---A--- null}
- -t 1.28672 -s 3 -d 4 -p tcp -e 1040 -c 1 -i 75 -a 1 -x {0.0 4.0 24 ---A--- null}
h -t 1.28672 -s 3 -d 4 -p tcp -e 1040 -c 1 -i 75 -a 1 -x {0.0 4.0 -1 ---A--- null}
r -t 1.35336 -s 3 -d 4 -p tcp -e 1040 -c 1 -i 75 -a 1 -x {0.0 4.0 24 ---A--- null}
+ -t 1.35336 -s 4 -d 3 -p ack -e 40 -c 1 -i 76 -a 1 -x {4.0 0.0 27 ------- null}
- -t 1.35336 -s 4 -d 3 -p ack -e 40 -c 1 -i 76 -a 1 -x {4.0 0.0 27 ------- null}
h -t 1.35336 -s 4 -d 3 -p ack -e 40 -c 1 -i 76 -a 1 -x {4.0 0.0 -1 ------- null}
r -t 1.404 -s 4 -d 3 -p ack -e 40 -c 1 -i 76 -a 1 -x {4.0 0.0 27 ------- null}
+ -t 1.404 -s 3 -d 0 -p ack -e 40 -c 1 -i 76 -a 1 -x {4.0 0.0 27 ------- null}
- -t 1.404 -s 3 -d 0 -p ack -e 40 -c 1 -i 76 -a 1 -x {4.0 0.0 27 ------- null}
h -t 1.404 -s 3 -d 0 -p ack -e 40 -c 1 -i 76 -a 1 -x {4.0 0.0 -1 ------- null}
r -t 1.45464 -s 3 -d 0 -p ack -e 40 -c 1 -i 76 -a 1 -x {4.0 0.0 27 ------- null}
+ -t 1.45464 -s 0 -d 3 -p tcp -e 1040 -c 1 -i 77 -a 1 -x {0.0 4.0 28 ------- null}
- -t 1.45464 -s 0 -d 3 -p tcp -e 1040 -c 1 -i 77 -a 1 -x {0.0 4.0 28 ------- null}
h -t 1.45464 -s 0 -d 3 -p tcp -e 1040 -c 1 -i 77 -a 1 -x {0.0 4.0 -1 ------- null}
+ -t 1.45464 -s 0 -d 3 -p tcp -e 1040 -c 1 -i 78 -a 1 -x {0.0 4.0 29 ------- null}
- -t 1.47128 -s 0 -d 3 -p tcp -e 1040 -c 1 -i 78 -a 1 -x {0.0 4.0 29 ------- null}
h -t 1.47128 -s 0 -d 3 -p tcp -e 1040 -c 1 -i 78 -a 1 -x {0.0 4.0 -1 ------- null}
r -t 1.52128 -s 0 -d 3 -p tcp -e 1040 -c 1 -i 77 -a 1 -x {0.0 4.0 28 ------- null}
+ -t 1.52128 -s 3 -d 4 -p tcp -e 1040 -c 1 -i 77 -a 1 -x {0.0 4.0 28 ------- null}
- -t 1.52128 -s 3 -d 4 -p tcp -e 1040 -c 1 -i 77 -a 1 -x {0.0 4.0 28 ------- null}
h -t 1.52128 -s 3 -d 4 -p tcp -e 1040 -c 1 -i 77 -a 1 -x {0.0 4.0 -1 ------- null}
r -t 1.53792 -s 0 -d 3 -p tcp -e 1040 -c 1 -i 78 -a 1 -x {0.0 4.0 29 ------- null}
+ -t 1.53792 -s 3 -d 4 -p tcp -e 1040 -c 1 -i 78 -a 1 -x {0.0 4.0 29 ------- null}
- -t 1.53792 -s 3 -d 4 -p tcp -e 1040 -c 1 -i 78 -a 1 -x {0.0 4.0 29 ------- null}
h -t 1.53792 -s 3 -d 4 -p tcp -e 1040 -c 1 -i 78 -a 1 -x {0.0 4.0 -1 ------- null}
r -t 1.58792 -s 3 -d 4 -p tcp -e 1040 -c 1 -i 77 -a 1 -x {0.0 4.0 28 ------- null}
r -t 1.60456 -s 3 -d 4 -p tcp -e 1040 -c 1 -i 78 -a 1 -x {0.0 4.0 29 ------- null}
+ -t 1.60456 -s 4 -d 3 -p ack -e 40 -c 1 -i 79 -a 1 -x {4.0 0.0 29 ------- null}
- -t 1.60456 -s 4 -d 3 -p ack -e 40 -c 1 -i 79 -a 1 -x {4.0 0.0 29 ------- null}
h -t 1.60456 -s 4 -d 3 -p ack -e 40 -c 1 -i 79 -a 1 -x {4.0 0.0 -1 ------- null}
r -t 1.6552 -s 4 -d 3 -p ack -e 40 -c 1 -i 79 -a 1 -x {4.0 0.0 29 ------- null}
+ -t 1.6552 -s 3 -d 0 -p ack -e 40 -c 1 -i 79 -a 1 -x {4.0 0.0 29 ------- null}
- -t 1.6552 -s 3 -d 0 -p ack -e 40 -c 1 -i 79 -a 1 -x {4.0 0.0 29 ------- null}
h -t 1.6552 -s 3 -d 0 -p ack -e 40 -c 1 -i 79 -a 1 -x {4.0 0.0 -1 ------- null}
r -t 1.70584 -s 3 -d 0 -p ack -e 40 -c 1 -i 79 -a 1 -x {4.0 0.0 29 ------- null}
+ -t 1.70584 -s 0 -d 3 -p tcp -e 1040 -c 1 -i 80 -a 1 -x {0.0 4.0 30 ------- null}
- -t 1.70584 -s 0 -d 3 -p tcp -e 1040 -c 1 -i 80 -a 1 -x {0.0 4.0 30 ------- null}
h -t 1.70584 -s 0 -d 3 -p tcp -e 1040 -c 1 -i 80 -a 1 -x {0.0 4.0 -1 ------- null}
+ -t 1.70584 -s 0 -d 3 -p tcp -e 1040 -c 1 -i 81 -a 1 -x {0.0 4.0 31 ------- null}
+ -t 1.70584 -s 0 -d 3 -p tcp -e 1040 -c 1 -i 82 -a 1 -x {0.0 4.0 32 ------- null}
- -t 1.72248 -s 0 -d 3 -p tcp -e 1040 -c 1 -i 81 -a 1 -x {0.0 4.0 31 ------- null}
h -t 1.72248 -s 0 -d 3 -p tcp -e 1040 -c 1 -i 81 -a 1 -x {0.0 4.0 -1 ------- null}
- -t 1.73912 -s 0 -d 3 -p tcp -e 1040 -c 1 -i 82 -a 1 -x {0.0 4.0 32 ------- null}
h -t 1.73912 -s 0 -d 3 -p tcp -e 1040 -c 1 -i 82 -a 1 -x {0.0 4.0 -1 ------- null}
r -t 1.77248 -s 0 -d 3 -p tcp -e 1040 -c 1 -i 80 -a 1 -x {0.0 4.0 30 ------- null}
+ -t 1.77248 -s 3 -d 4 -p tcp -e 1040 -c 1 -i 80 -a 1 -x {0.0 4.0 30 ------- null}
- -t 1.77248 -s 3 -d 4 -p tcp -e 1040 -c 1 -i 80 -a 1 -x {0.0 4.0 30 ------- null}
h -t 1.77248 -s 3 -d 4 -p tcp -e 1040 -c 1 -i 80 -a 1 -x {0.0 4.0 -1 ------- null}
r -t 1.78912 -s 0 -d 3 -p tcp -e 1040 -c 1 -i 81 -a 1 -x {0.0 4.0 31 ------- null}
+ -t 1.78912 -s 3 -d 4 -p tcp -e 1040 -c 1 -i 81 -a 1 -x {0.0 4.0 31 ------- null}
- -t 1.78912 -s 3 -d 4 -p tcp -e 1040 -c 1 -i 81 -a 1 -x {0.0 4.0 31 ------- null}