+ 0.00017 0 1 rtProtoDV 5 ------- 0 0.2 1.1 -1 0
- 0.00017 0 1 rtProtoDV 5 ------- 0 0.2 1.1 -1 0
+ 0.00017 0 2 rtProtoDV 5 ------- 0 0.2 2.1 -1 1
- 0.00017 0 2 rtProtoDV 5 ------- 0 0.2 2.1 -1 1
+ 0.00017 0 3 rtProtoDV 5 ------- 0 0.2 3.1 -1 2
- 0.00017 0 3 rtProtoDV 5 ------- 0 0.2 3.1 -1 2
+ 0.00017 0 4 rtProtoDV 5 ------- 0 0.2 4.2 -1 3
- 0.00017 0 4 rtProtoDV 5 ------- 0 0.2 4.2 -1 3
+ 0.007102 2 0 rtProtoDV 5 ------- 0 2.1 0.2 -1 4
- 0.007102 2 0 rtProtoDV 5 ------- 0 2.1 0.2 -1 4
+ 0.044061 3 0 rtProtoDV 5 ------- 0 3.1 0.2 -1 5
- 0.044061 3 0 rtProtoDV 5 ------- 0 3.1 0.2 -1 5
+ 0.044061 3 4 rtProtoDV 5 ------- 0 3.1 4.2 -1 6
- 0.044061 3 4 rtProtoDV 5 ------- 0 3.1 4.2 -1 6
r 0.05025 0 1 rtProtoDV 5 ------- 0 0.2 1.1 -1 0
+ 0.05025 1 0 rtProtoDV 5 ------- 0 1.1 0.2 -1 7
- 0.05025 1 0 rtProtoDV 5 ------- 0 1.1 0.2 -1 7
r 0.05025 0 2 rtProtoDV 5 ------- 0 0.2 2.1 -1 1
+ 0.05025 2 0 rtProtoDV 5 ------- 0 2.1 0.2 -1 8
- 0.05025 2 0 rtProtoDV 5 ------- 0 2.1 0.2 -1 8
r 0.05025 0 3 rtProtoDV 5 ------- 0 0.2 3.1 -1 2
+ 0.05025 3 0 rtProtoDV 5 ------- 0 3.1 0.2 -1 9
- 0.05025 3 0 rtProtoDV 5 ------- 0 3.1 0.2 -1 9
+ 0.05025 3 4 rtProtoDV 5 ------- 0 3.1 4.2 -1 10
- 0.05025 3 4 rtProtoDV 5 ------- 0 3.1 4.2 -1 10
r 0.05025 0 4 rtProtoDV 5 ------- 0 0.2 4.2 -1 3
+ 0.05025 4 0 rtProtoDV 5 ------- 0 4.2 0.2 -1 11
- 0.05025 4 0 rtProtoDV 5 ------- 0 4.2 0.2 -1 11
+ 0.05025 4 3 rtProtoDV 5 ------- 0 4.2 3.1 -1 12
- 0.05025 4 3 rtProtoDV 5 ------- 0 4.2 3.1 -1 12
r 0.057182 2 0 rtProtoDV 5 ------- 0 2.1 0.2 -1 4
r 0.094141 3 0 rtProtoDV 5 ------- 0 3.1 0.2 -1 5
r 0.094141 3 4 rtProtoDV 5 ------- 0 3.1 4.2 -1 6
+ 0.1 0 4 tcp 40 ------- 1 0.0 4.0 0 13
- 0.1 0 4 tcp 40 ------- 1 0.0 4.0 0 13
r 0.10033 1 0 rtProtoDV 5 ------- 0 1.1 0.2 -1 7
r 0.10033 2 0 rtProtoDV 5 ------- 0 2.1 0.2 -1 8
r 0.10033 3 0 rtProtoDV 5 ------- 0 3.1 0.2 -1 9
r 0.10033 3 4 rtProtoDV 5 ------- 0 3.1 4.2 -1 10
r 0.10033 4 0 rtProtoDV 5 ------- 0 4.2 0.2 -1 11
r 0.10033 4 3 rtProtoDV 5 ------- 0 4.2 3.1 -1 12
r 0.15064 0 4 tcp 40 ------- 1 0.0 4.0 0 13
+ 0.15064 4 0 ack 40 ------- 1 4.0 0.0 0 14
- 0.15064 4 0 ack 40 ------- 1 4.0 0.0 0 14
r 0.20128 4 0 ack 40 ------- 1 4.0 0.0 0 14
+ 0.20128 0 4 tcp 1040 ------- 1 0.0 4.0 1 15
- 0.20128 0 4 tcp 1040 ------- 1 0.0 4.0 1 15
+ 0.20128 0 4 tcp 1040 ------- 1 0.0 4.0 2 16
- 0.21792 0 4 tcp 1040 ------- 1 0.0 4.0 2 16
+ 0.220587 4 0 rtProtoDV 5 ------- 0 4.2 0.2 -1 17
- 0.220587 4 0 rtProtoDV 5 ------- 0 4.2 0.2 -1 17
+ 0.220587 4 3 rtProtoDV 5 ------- 0 4.2 3.1 -1 18
- 0.220587 4 3 rtProtoDV 5 ------- 0 4.2 3.1 -1 18
r 0.26792 0 4 tcp 1040 ------- 1 0.0 4.0 1 15
r 0.270667 4 0 rtProtoDV 5 ------- 0 4.2 0.2 -1 17
r 0.270667 4 3 rtProtoDV 5 ------- 0 4.2 3.1 -1 18
+ 0.27794 1 0 rtProtoDV 5 ------- 0 1.1 0.2 -1 19
- 0.27794 1 0 rtProtoDV 5 ------- 0 1.1 0.2 -1 19
r 0.28456 0 4 tcp 1040 ------- 1 0.0 4.0 2 16
+ 0.28456 4 0 ack 40 ------- 1 4.0 0.0 2 20
- 0.28456 4 0 ack 40 ------- 1 4.0 0.0 2 20
r 0.32802 1 0 rtProtoDV 5 ------- 0 1.1 0.2 -1 19
r 0.3352 4 0 ack 40 ------- 1 4.0 0.0 2 20
+ 0.3352 0 4 tcp 1040 ------- 1 0.0 4.0 3 21
- 0.3352 0 4 tcp 1040 ------- 1 0.0 4.0 3 21
+ 0.3352 0 4 tcp 1040 ------- 1 0.0 4.0 4 22
+ 0.3352 0 4 tcp 1040 ------- 1 0.0 4.0 5 23
- 0.35184 0 4 tcp 1040 ------- 1 0.0 4.0 4 22
- 0.36848 0 4 tcp 1040 ------- 1 0.0 4.0 5 23
r 0.40184 0 4 tcp 1040 ------- 1 0.0 4.0 3 21
r 0.41848 0 4 tcp 1040 ------- 1 0.0 4.0 4 22
+ 0.41848 4 0 ack 40 ------- 1 4.0 0.0 4 24
- 0.41848 4 0 ack 40 ------- 1 4.0 0.0 4 24
r 0.43512 0 4 tcp 1040 ------- 1 0.0 4.0 5 23
r 0.46912 4 0 ack 40 ------- 1 4.0 0.0 4 24
+ 0.46912 0 4 tcp 1040 ------- 1 0.0 4.0 6 25
- 0.46912 0 4 tcp 1040 ------- 1 0.0 4.0 6 25
+ 0.46912 0 4 tcp 1040 ------- 1 0.0 4.0 7 26
+ 0.46912 0 4 tcp 1040 ------- 1 0.0 4.0 8 27
- 0.48576 0 4 tcp 1040 ------- 1 0.0 4.0 7 26
- 0.5024 0 4 tcp 1040 ------- 1 0.0 4.0 8 27
+ 0.53512 4 0 ack 40 ------- 1 4.0 0.0 5 28
- 0.53512 4 0 ack 40 ------- 1 4.0 0.0 5 28
r 0.53576 0 4 tcp 1040 ------- 1 0.0 4.0 6 25
r 0.5524 0 4 tcp 1040 ------- 1 0.0 4.0 7 26
+ 0.5524 4 0 ack 40 ------- 1 4.0 0.0 7 29
- 0.5524 4 0 ack 40 ------- 1 4.0 0.0 7 29
r 0.56904 0 4 tcp 1040 ------- 1 0.0 4.0 8 27
r 0.58576 4 0 ack 40 ------- 1 4.0 0.0 5 28
+ 0.58576 0 4 tcp 1040 ------- 1 0.0 4.0 9 30
- 0.58576 0 4 tcp 1040 ------- 1 0.0 4.0 9 30
+ 0.58576 0 4 tcp 1040 ------- 1 0.0 4.0 10 31
- 0.6024 0 4 tcp 1040 ------- 1 0.0 4.0 10 31
r 0.60304 4 0 ack 40 ------- 1 4.0 0.0 7 29
+ 0.60304 0 4 tcp 1040 ------- 1 0.0 4.0 11 32
+ 0.60304 0 4 tcp 1040 ------- 1 0.0 4.0 12 33
+ 0.60304 0 4 tcp 1040 ------- 1 0.0 4.0 13 34
- 0.61904 0 4 tcp 1040 ------- 1 0.0 4.0 11 32
- 0.63568 0 4 tcp 1040 ------- 1 0.0 4.0 12 33
- 0.65232 0 4 tcp 1040 ------- 1 0.0 4.0 13 34
r 0.6524 0 4 tcp 1040 ------- 1 0.0 4.0 9 30
+ 0.6524 4 0 ack 40 ------- 1 4.0 0.0 9 35
- 0.6524 4 0 ack 40 ------- 1 4.0 0.0 9 35
r 0.66904 0 4 tcp 1040 ------- 1 0.0 4.0 10 31
r 0.68568 0 4 tcp 1040 ------- 1 0.0 4.0 11 32
+ 0.68568 4 0 ack 40 ------- 1 4.0 0.0 11 36
- 0.68568 4 0 ack 40 ------- 1 4.0 0.0 11 36
r 0.70232 0 4 tcp 1040 ------- 1 0.0 4.0 12 33
r 0.70304 4 0 ack 40 ------- 1 4.0 0.0 9 35
+ 0.70304 0 4 tcp 1040 ------- 1 0.0 4.0 14 37
- 0.70304 0 4 tcp 1040 ------- 1 0.0 4.0 14 37
+ 0.70304 0 4 tcp 1040 ------- 1 0.0 4.0 15 38
+ 0.70304 0 4 tcp 1040 ------- 1 0.0 4.0 16 39
r 0.71896 0 4 tcp 1040 ------- 1 0.0 4.0 13 34
+ 0.71896 4 0 ack 40 ------- 1 4.0 0.0 13 40
- 0.71896 4 0 ack 40 ------- 1 4.0 0.0 13 40
- 0.71968 0 4 tcp 1040 ------- 1 0.0 4.0 15 38
r 0.73632 4 0 ack 40 ------- 1 4.0 0.0 11 36
+ 0.73632 0 4 tcp 1040 ------- 1 0.0 4.0 17 41
+ 0.73632 0 4 tcp 1040 ------- 1 0.0 4.0 18 42
+ 0.73632 0 4 tcp 1040 ------- 1 0.0 4.0 19 43
- 0.73632 0 4 tcp 1040 ------- 1 0.0 4.0 16 39
- 0.75296 0 4 tcp 1040 ------- 1 0.0 4.0 17 41
r 0.7696 4 0 ack 40 ------- 1 4.0 0.0 13 40
+ 0.7696 0 4 tcp 1040 ------- 1 0.0 4.0 20 44
+ 0.7696 0 4 tcp 1040 ------- 1 0.0 4.0 21 45
+ 0.7696 0 4 tcp 1040 ------- 1 0.0 4.0 22 46
- 0.7696 0 4 tcp 1040 ------- 1 0.0 4.0 18 42
r 0.76968 0 4 tcp 1040 ------- 1 0.0 4.0 14 37
- 0.78624 0 4 tcp 1040 ------- 1 0.0 4.0 19 43
r 0.78632 0 4 tcp 1040 ------- 1 0.0 4.0 15 38
+ 0.78632 4 0 ack 40 ------- 1 4.0 0.0 15 47
- 0.78632 4 0 ack 40 ------- 1 4.0 0.0 15 47
- 0.80288 0 4 tcp 1040 ------- 1 0.0 4.0 20 44
r 0.80296 0 4 tcp 1040 ------- 1 0.0 4.0 16 39
- 0.81952 0 4 tcp 1040 ------- 1 0.0 4.0 21 45
r 0.8196 0 4 tcp 1040 ------- 1 0.0 4.0 17 41
+ 0.8196 4 0 ack 40 ------- 1 4.0 0.0 17 48
- 0.8196 4 0 ack 40 ------- 1 4.0 0.0 17 48
- 0.83616 0 4 tcp 1040 ------- 1 0.0 4.0 22 46
r 0.83624 0 4 tcp 1040 ------- 1 0.0 4.0 18 42
r 0.83696 4 0 ack 40 ------- 1 4.0 0.0 15 47
+ 0.83696 0 4 tcp 1040 ------- 1 0.0 4.0 23 49
+ 0.83696 0 4 tcp 1040 ------- 1 0.0 4.0 24 50
+ 0.83696 0 4 tcp 1040 ------- 1 0.0 4.0 25 51
- 0.8528 0 4 tcp 1040 ------- 1 0.0 4.0 23 49
r 0.85288 0 4 tcp 1040 ------- 1 0.0 4.0 19 43
+ 0.85288 4 0 ack 40 ------- 1 4.0 0.0 19 52
- 0.85288 4 0 ack 40 ------- 1 4.0 0.0 19 52
- 0.86944 0 4 tcp 1040 ------- 1 0.0 4.0 24 50
r 0.86952 0 4 tcp 1040 ------- 1 0.0 4.0 20 44
r 0.87024 4 0 ack 40 ------- 1 4.0 0.0 17 48
+ 0.87024 0 4 tcp 1040 ------- 1 0.0 4.0 26 53
+ 0.87024 0 4 tcp 1040 ------- 1 0.0 4.0 27 54
+ 0.87024 0 4 tcp 1040 ------- 1 0.0 4.0 28 55
- 0.88608 0 4 tcp 1040 ------- 1 0.0 4.0 25 51
r 0.88616 0 4 tcp 1040 ------- 1 0.0 4.0 21 45
+ 0.88616 4 0 ack 40 ------- 1 4.0 0.0 21 56
- 0.88616 4 0 ack 40 ------- 1 4.0 0.0 21 56
- 0.90272 0 4 tcp 1040 ------- 1 0.0 4.0 26 53
r 0.9028 0 4 tcp 1040 ------- 1 0.0 4.0 22 46
r 0.90352 4 0 ack 40 ------- 1 4.0 0.0 19 52
+ 0.90352 0 4 tcp 1040 ------- 1 0.0 4.0 29 57
+ 0.90352 0 4 tcp 1040 ------- 1 0.0 4.0 30 58
+ 0.90352 0 4 tcp 1040 ------- 1 0.0 4.0 31 59
- 0.91936 0 4 tcp 1040 ------- 1 0.0 4.0 27 54
r 0.91944 0 4 tcp 1040 ------- 1 0.0 4.0 23 49
+ 0.91944 4 0 ack 40 ------- 1 4.0 0.0 23 60
- 0.91944 4 0 ack 40 ------- 1 4.0 0.0 23 60
- 0.936 0 4 tcp 1040 ------- 1 0.0 4.0 28 55
r 0.93608 0 4 tcp 1040 ------- 1 0.0 4.0 24 50
r 0.9368 4 0 ack 40 ------- 1 4.0 0.0 21 56
+ 0.9368 0 4 tcp 1040 ------- 1 0.0 4.0 32 61
+ 0.9368 0 4 tcp 1040 ------- 1 0.0 4.0 33 62
+ 0.9368 0 4 tcp 1040 ------- 1 0.0 4.0 34 63
- 0.95264 0 4 tcp 1040 ------- 1 0.0 4.0 29 57
r 0.95272 0 4 tcp 1040 ------- 1 0.0 4.0 25 51
+ 0.95272 4 0 ack 40 ------- 1 4.0 0.0 25 64
- 0.95272 4 0 ack 40 ------- 1 4.0 0.0 25 64
- 0.96928 0 4 tcp 1040 ------- 1 0.0 4.0 30 58
r 0.96936 0 4 tcp 1040 ------- 1 0.0 4.0 26 53
r 0.97008 4 0 ack 40 ------- 1 4.0 0.0 23 60
+ 0.97008 0 4 tcp 1040 ------- 1 0.0 4.0 35 65
+ 0.97008 0 4 tcp 1040 ------- 1 0.0 4.0 36 66
+ 0.97008 0 4 tcp 1040 ------- 1 0.0 4.0 37 67
- 0.98592 0 4 tcp 1040 ------- 1 0.0 4.0 31 59
r 0.986 0 4 tcp 1040 ------- 1 0.0 4.0 27 54
+ 0.986 4 0 ack 40 ------- 1 4.0 0.0 27 68
- 0.986 4 0 ack 40 ------- 1 4.0 0.0 27 68
d 1 4 0 ack 40 ------- 1 4.0 0.0 25 64
d 1 4 0 ack 40 ------- 1 4.0 0.0 27 68
v 1 link-down 4 0
v 1 link-down 4 0
d 1 0 4 tcp 1040 ------- 1 0.0 4.0 32 61
d 1 0 4 tcp 1040 ------- 1 0.0 4.0 33 62
d 1 0 4 tcp 1040 ------- 1 0.0 4.0 34 63
d 1 0 4 tcp 1040 ------- 1 0.0 4.0 35 65
d 1 0 4 tcp 1040 ------- 1 0.0 4.0 36 66
d 1 0 4 tcp 1040 ------- 1 0.0 4.0 37 67
d 1 0 4 tcp 1040 ------- 1 0.0 4.0 28 55
d 1 0 4 tcp 1040 ------- 1 0.0 4.0 29 57
d 1 0 4 tcp 1040 ------- 1 0.0 4.0 30 58
d 1 0 4 tcp 1040 ------- 1 0.0 4.0 31 59
v 1 link-down 0 4
v 1 link-down 0 4
+ 1 4 3 rtProtoDV 5 ------- 0 4.2 3.1 -1 69
- 1 4 3 rtProtoDV 5 ------- 0 4.2 3.1 -1 69
+ 1 0 1 rtProtoDV 5 ------- 0 0.2 1.1 -1 70
- 1 0 1 rtProtoDV 5 ------- 0 0.2 1.1 -1 70
+ 1 0 2 rtProtoDV 5 ------- 0 0.2 2.1 -1 71
- 1 0 2 rtProtoDV 5 ------- 0 0.2 2.1 -1 71
+ 1 0 3 rtProtoDV 5 ------- 0 0.2 3.1 -1 72
- 1 0 3 rtProtoDV 5 ------- 0 0.2 3.1 -1 72
r 1.05008 4 3 rtProtoDV 5 ------- 0 4.2 3.1 -1 69
r 1.05008 0 1 rtProtoDV 5 ------- 0 0.2 1.1 -1 70
+ 1.05008 1 0 rtProtoDV 5 ------- 0 1.1 0.2 -1 73
- 1.05008 1 0 rtProtoDV 5 ------- 0 1.1 0.2 -1 73
r 1.05008 0 2 rtProtoDV 5 ------- 0 0.2 2.1 -1 71
+ 1.05008 2 0 rtProtoDV 5 ------- 0 2.1 0.2 -1 74
- 1.05008 2 0 rtProtoDV 5 ------- 0 2.1 0.2 -1 74
r 1.05008 0 3 rtProtoDV 5 ------- 0 0.2 3.1 -1 72
r 1.10016 1 0 rtProtoDV 5 ------- 0 1.1 0.2 -1 73
r 1.10016 2 0 rtProtoDV 5 ------- 0 2.1 0.2 -1 74
+ 1.22008 0 3 tcp 1040 ---A--- 1 0.0 4.0 24 75
- 1.22008 0 3 tcp 1040 ---A--- 1 0.0 4.0 24 75
r 1.28672 0 3 tcp 1040 ---A--- 1 0.0 4.0 24 75
+ 1.28672 3 4 tcp 1040 ---A--- 1 0.0 4.0 24 75
- 1.28672 3 4 tcp 1040 ---A--- 1 0.0 4.0 24 75
r 1.35336 3 4 tcp 1040 ---A--- 1 0.0 4.0 24 75
+ 1.35336 4 3 ack 40 ------- 1 4.0 0.0 27 76
- 1.35336 4 3 ack 40 ------- 1 4.0 0.0 27 76
r 1.404 4 3 ack 40 ------- 1 4.0 0.0 27 76
+ 1.404 3 0 ack 40 ------- 1 4.0 0.0 27 76
- 1.404 3 0 ack 40 ------- 1 4.0 0.0 27 76
r 1.45464 3 0 ack 40 ------- 1 4.0 0.0 27 76
+ 1.45464 0 3 tcp 1040 ------- 1 0.0 4.0 28 77
- 1.45464 0 3 tcp 1040 ------- 1 0.0 4.0 28 77
+ 1.45464 0 3 tcp 1040 ------- 1 0.0 4.0 29 78
- 1.47128 0 3 tcp 1040 ------- 1 0.0 4.0 29 78
r 1.52128 0 3 tcp 1040 ------- 1 0.0 4.0 28 77
+ 1.52128 3 4 tcp 1040 ------- 1 0.0 4.0 28 77
- 1.52128 3 4 tcp 1040 ------- 1 0.0 4.0 28 77
r 1.53792 0 3 tcp 1040 ------- 1 0.0 4.0 29 78
+ 1.53792 3 4 tcp 1040 ------- 1 0.0 4.0 29 78
- 1.53792 3 4 tcp 1040 ------- 1 0.0 4.0 29 78
r 1.58792 3 4 tcp 1040 ------- 1 0.0 4.0 28 77
r 1.60456 3 4 tcp 1040 ------- 1 0.0 4.0 29 78
+ 1.60456 4 3 ack 40 ------- 1 4.0 0.0 29 79
- 1.60456 4 3 ack 40 ------- 1 4.0 0.0 29 79
r 1.6552 4 3 ack 40 ------- 1 4.0 0.0 29 79
+ 1.6552 3 0 ack 40 ------- 1 4.0 0.0 29 79
- 1.6552 3 0 ack 40 ------- 1 4.0 0.0 29 79
r 1.70584 3 0 ack 40 ------- 1 4.0 0.0 29 79
+ 1.70584 0 3 tcp 1040 ------- 1 0.0 4.0 30 80
- 1.70584 0 3 tcp 1040 ------- 1 0.0 4.0 30 80
+ 1.70584 0 3 tcp 1040 ------- 1 0.0 4.0 31 81
+ 1.70584 0 3 tcp 1040 ------- 1 0.0 4.0 32 82
- 1.72248 0 3 tcp 1040 ------- 1 0.0 4.0 31 81
- 1.73912 0 3 tcp 1040 ------- 1 0.0 4.0 32 82
r 1.77248 0 3 tcp 1040 ------- 1 0.0 4.0 30 80
+ 1.77248 3 4 tcp 1040 ------- 1 0.0 4.0 30 80
- 1.77248 3 4 tcp 1040 ------- 1 0.0 4.0 30 80
r 1.78912 0 3 tcp 1040 ------- 1 0.0 4.0 31 81
+ 1.78912 3 4 tcp 1040 ------- 1 0.0 4.0 31 81
- 1.78912 3 4 tcp 1040 ------- 1 0.0 4.0 31 81
r 1.80576 0 3 tcp 1040 ------- 1 0.0 4.0 32 82
+ 1.80576 3 4 tcp 1040 ------- 1 0.0 4.0 32 82
- 1.80576 3 4 tcp 1040 ------- 1 0.0 4.0 32 82
r 1.83912 3 4 tcp 1040 ------- 1 0.0 4.0 30 80
r 1.85576 3 4 tcp 1040 ------- 1 0.0 4.0 31 81
+ 1.85576 4 3 ack 40 ------- 1 4.0 0.0 31 83
- 1.85576 4 3 ack 40 ------- 1 4.0 0.0 31 83
r 1.8724 3 4 tcp 1040 ------- 1 0.0 4.0 32 82
r 1.9064 4 3 ack 40 ------- 1 4.0 0.0 31 83
+ 1.9064 3 0 ack 40 ------- 1 4.0 0.0 31 83
- 1.9064 3 0 ack 40 ------- 1 4.0 0.0 31 83
+ 1.932287 2 0 rtProtoDV 5 ------- 0 2.1 0.2 -1 84
- 1.932287 2 0 rtProtoDV 5 ------- 0 2.1 0.2 -1 84
r 1.95704 3 0 ack 40 ------- 1 4.0 0.0 31 83
+ 1.95704 0 3 tcp 1040 ------- 1 0.0 4.0 33 85
- 1.95704 0 3 tcp 1040 ------- 1 0.0 4.0 33 85
+ 1.95704 0 3 tcp 1040 ------- 1 0.0 4.0 34 86
+ 1.95704 0 3 tcp 1040 ------- 1 0.0 4.0 35 87
+ 1.9724 4 3 ack 40 ------- 1 4.0 0.0 32 88
- 1.9724 4 3 ack 40 ------- 1 4.0 0.0 32 88
- 1.97368 0 3 tcp 1040 ------- 1 0.0 4.0 34 86
r 1.982367 2 0 rtProtoDV 5 ------- 0 2.1 0.2 -1 84
- 1.99032 0 3 tcp 1040 ------- 1 0.0 4.0 35 87
r 2.02304 4 3 ack 40 ------- 1 4.0 0.0 32 88
+ 2.02304 3 0 ack 40 ------- 1 4.0 0.0 32 88
- 2.02304 3 0 ack 40 ------- 1 4.0 0.0 32 88
r 2.02368 0 3 tcp 1040 ------- 1 0.0 4.0 33 85
+ 2.02368 3 4 tcp 1040 ------- 1 0.0 4.0 33 85
- 2.02368 3 4 tcp 1040 ------- 1 0.0 4.0 33 85
r 2.04032 0 3 tcp 1040 ------- 1 0.0 4.0 34 86
+ 2.04032 3 4 tcp 1040 ------- 1 0.0 4.0 34 86
- 2.04032 3 4 tcp 1040 ------- 1 0.0 4.0 34 86
r 2.05696 0 3 tcp 1040 ------- 1 0.0 4.0 35 87
+ 2.05696 3 4 tcp 1040 ------- 1 0.0 4.0 35 87
- 2.05696 3 4 tcp 1040 ------- 1 0.0 4.0 35 87
r 2.07368 3 0 ack 40 ------- 1 4.0 0.0 32 88
+ 2.07368 0 3 tcp 1040 ------- 1 0.0 4.0 36 89
- 2.07368 0 3 tcp 1040 ------- 1 0.0 4.0 36 89
+ 2.07368 0 3 tcp 1040 ------- 1 0.0 4.0 37 90
r 2.09032 3 4 tcp 1040 ------- 1 0.0 4.0 33 85
- 2.09032 0 3 tcp 1040 ------- 1 0.0 4.0 37 90
r 2.10696 3 4 tcp 1040 ------- 1 0.0 4.0 34 86
+ 2.10696 4 3 ack 40 ------- 1 4.0 0.0 34 91
- 2.10696 4 3 ack 40 ------- 1 4.0 0.0 34 91
+ 2.114427 4 3 rtProtoDV 5 ------- 0 4.2 3.1 -1 92
- 2.114427 4 3 rtProtoDV 5 ------- 0 4.2 3.1 -1 92
+ 2.119832 0 1 rtProtoDV 5 ------- 0 0.2 1.1 -1 93
- 2.119832 0 1 rtProtoDV 5 ------- 0 0.2 1.1 -1 93
+ 2.119832 0 2 rtProtoDV 5 ------- 0 0.2 2.1 -1 94
- 2.119832 0 2 rtProtoDV 5 ------- 0 0.2 2.1 -1 94
+ 2.119832 0 3 rtProtoDV 5 ------- 0 0.2 3.1 -1 95
- 2.119832 0 3 rtProtoDV 5 ------- 0 0.2 3.1 -1 95
r 2.1236 3 4 tcp 1040 ------- 1 0.0 4.0 35 87
r 2.14032 0 3 tcp 1040 ------- 1 0.0 4.0 36 89
+ 2.14032 3 4 tcp 1040 ------- 1 0.0 4.0 36 89
- 2.14032 3 4 tcp 1040 ------- 1 0.0 4.0 36 89
r 2.15696 0 3 tcp 1040 ------- 1 0.0 4.0 37 90
+ 2.15696 3 4 tcp 1040 ------- 1 0.0 4.0 37 90
- 2.15696 3 4 tcp 1040 ------- 1 0.0 4.0 37 90
r 2.1576 4 3 ack 40 ------- 1 4.0 0.0 34 91
+ 2.1576 3 0 ack 40 ------- 1 4.0 0.0 34 91
- 2.1576 3 0 ack 40 ------- 1 4.0 0.0 34 91
r 2.164507 4 3 rtProtoDV 5 ------- 0 4.2 3.1 -1 92
r 2.169912 0 1 rtProtoDV 5 ------- 0 0.2 1.1 -1 93
r 2.169912 0 2 rtProtoDV 5 ------- 0 0.2 2.1 -1 94
r 2.169912 0 3 rtProtoDV 5 ------- 0 0.2 3.1 -1 95
+ 2.170652 3 0 rtProtoDV 5 ------- 0 3.1 0.2 -1 96
- 2.170652 3 0 rtProtoDV 5 ------- 0 3.1 0.2 -1 96
+ 2.170652 3 4 rtProtoDV 5 ------- 0 3.1 4.2 -1 97
- 2.1736 3 4 rtProtoDV 5 ------- 0 3.1 4.2 -1 97
r 2.20696 3 4 tcp 1040 ------- 1 0.0 4.0 36 89
+ 2.20696 4 3 ack 40 ------- 1 4.0 0.0 36 98
- 2.20696 4 3 ack 40 ------- 1 4.0 0.0 36 98
r 2.20824 3 0 ack 40 ------- 1 4.0 0.0 34 91
+ 2.20824 0 3 tcp 1040 ------- 1 0.0 4.0 38 99
- 2.20824 0 3 tcp 1040 ------- 1 0.0 4.0 38 99
+ 2.20824 0 3 tcp 1040 ------- 1 0.0 4.0 39 100
+ 2.20824 0 3 tcp 1040 ------- 1 0.0 4.0 40 101
r 2.220732 3 0 rtProtoDV 5 ------- 0 3.1 0.2 -1 96
r 2.2236 3 4 tcp 1040 ------- 1 0.0 4.0 37 90
r 2.22368 3 4 rtProtoDV 5 ------- 0 3.1 4.2 -1 97
- 2.22488 0 3 tcp 1040 ------- 1 0.0 4.0 39 100
- 2.24152 0 3 tcp 1040 ------- 1 0.0 4.0 40 101
r 2.2576 4 3 ack 40 ------- 1 4.0 0.0 36 98
+ 2.2576 3 0 ack 40 ------- 1 4.0 0.0 36 98
- 2.2576 3 0 ack 40 ------- 1 4.0 0.0 36 98
r 2.27488 0 3 tcp 1040 ------- 1 0.0 4.0 38 99
+ 2.27488 3 4 tcp 1040 ------- 1 0.0 4.0 38 99
- 2.27488 3 4 tcp 1040 ------- 1 0.0 4.0 38 99
r 2.29152 0 3 tcp 1040 ------- 1 0.0 4.0 39 100
+ 2.29152 3 4 tcp 1040 ------- 1 0.0 4.0 39 100
- 2.29152 3 4 tcp 1040 ------- 1 0.0 4.0 39 100
r 2.30816 0 3 tcp 1040 ------- 1 0.0 4.0 40 101
+ 2.30816 3 4 tcp 1040 ------- 1 0.0 4.0 40 101
- 2.30816 3 4 tcp 1040 ------- 1 0.0 4.0 40 101
r 2.30824 3 0 ack 40 ------- 1 4.0 0.0 36 98
+ 2.30824 0 3 tcp 1040 ------- 1 0.0 4.0 41 102
- 2.30824 0 3 tcp 1040 ------- 1 0.0 4.0 41 102
+ 2.30824 0 3 tcp 1040 ------- 1 0.0 4.0 42 103
+ 2.30824 0 3 tcp 1040 ------- 1 0.0 4.0 43 104
+ 2.3236 4 3 ack 40 ------- 1 4.0 0.0 37 105
- 2.3236 4 3 ack 40 ------- 1 4.0 0.0 37 105
- 2.32488 0 3 tcp 1040 ------- 1 0.0 4.0 42 103
+ 2.333486 1 0 rtProtoDV 5 ------- 0 1.1 0.2 -1 106
- 2.333486 1 0 rtProtoDV 5 ------- 0 1.1 0.2 -1 106
r 2.34152 3 4 tcp 1040 ------- 1 0.0 4.0 38 99
- 2.34152 0 3 tcp 1040 ------- 1 0.0 4.0 43 104
r 2.35816 3 4 tcp 1040 ------- 1 0.0 4.0 39 100
+ 2.35816 4 3 ack 40 ------- 1 4.0 0.0 39 107
- 2.35816 4 3 ack 40 ------- 1 4.0 0.0 39 107
r 2.37424 4 3 ack 40 ------- 1 4.0 0.0 37 105
+ 2.37424 3 0 ack 40 ------- 1 4.0 0.0 37 105
- 2.37424 3 0 ack 40 ------- 1 4.0 0.0 37 105
r 2.3748 3 4 tcp 1040 ------- 1 0.0 4.0 40 101
r 2.37488 0 3 tcp 1040 ------- 1 0.0 4.0 41 102
+ 2.37488 3 4 tcp 1040 ------- 1 0.0 4.0 41 102
- 2.37488 3 4 tcp 1040 ------- 1 0.0 4.0 41 102
r 2.383566 1 0 rtProtoDV 5 ------- 0 1.1 0.2 -1 106
r 2.39152 0 3 tcp 1040 ------- 1 0.0 4.0 42 103
+ 2.39152 3 4 tcp 1040 ------- 1 0.0 4.0 42 103
- 2.39152 3 4 tcp 1040 ------- 1 0.0 4.0 42 103
r 2.40816 0 3 tcp 1040 ------- 1 0.0 4.0 43 104
+ 2.40816 3 4 tcp 1040 ------- 1 0.0 4.0 43 104
- 2.40816 3 4 tcp 1040 ------- 1 0.0 4.0 43 104
r 2.4088 4 3 ack 40 ------- 1 4.0 0.0 39 107
+ 2.4088 3 0 ack 40 ------- 1 4.0 0.0 39 107
- 2.4088 3 0 ack 40 ------- 1 4.0 0.0 39 107
r 2.42488 3 0 ack 40 ------- 1 4.0 0.0 37 105
+ 2.42488 0 3 tcp 1040 ------- 1 0.0 4.0 44 108
- 2.42488 0 3 tcp 1040 ------- 1 0.0 4.0 44 108
r 2.44152 3 4 tcp 1040 ------- 1 0.0 4.0 41 102
+ 2.44152 4 3 ack 40 ------- 1 4.0 0.0 41 109
- 2.44152 4 3 ack 40 ------- 1 4.0 0.0 41 109
r 2.45816 3 4 tcp 1040 ------- 1 0.0 4.0 42 103
r 2.45944 3 0 ack 40 ------- 1 4.0 0.0 39 107
+ 2.45944 0 3 tcp 1040 ------- 1 0.0 4.0 45 110
- 2.45944 0 3 tcp 1040 ------- 1 0.0 4.0 45 110
+ 2.45944 0 3 tcp 1040 ------- 1 0.0 4.0 46 111
r 2.4748 3 4 tcp 1040 ------- 1 0.0 4.0 43 104
+ 2.4748 4 3 ack 40 ------- 1 4.0 0.0 43 112
- 2.4748 4 3 ack 40 ------- 1 4.0 0.0 43 112
- 2.47608 0 3 tcp 1040 ------- 1 0.0 4.0 46 111
r 2.49152 0 3 tcp 1040 ------- 1 0.0 4.0 44 108
+ 2.49152 3 4 tcp 1040 ------- 1 0.0 4.0 44 108
- 2.49152 3 4 tcp 1040 ------- 1 0.0 4.0 44 108
r 2.49216 4 3 ack 40 ------- 1 4.0 0.0 41 109
+ 2.49216 3 0 ack 40 ------- 1 4.0 0.0 41 109
- 2.49216 3 0 ack 40 ------- 1 4.0 0.0 41 109
r 2.52544 4 3 ack 40 ------- 1 4.0 0.0 43 112
+ 2.52544 3 0 ack 40 ------- 1 4.0 0.0 43 112
- 2.52544 3 0 ack 40 ------- 1 4.0 0.0 43 112
r 2.52608 0 3 tcp 1040 ------- 1 0.0 4.0 45 110
+ 2.52608 3 4 tcp 1040 ------- 1 0.0 4.0 45 110
- 2.52608 3 4 tcp 1040 ------- 1 0.0 4.0 45 110
r 2.54272 0 3 tcp 1040 ------- 1 0.0 4.0 46 111
+ 2.54272 3 4 tcp 1040 ------- 1 0.0 4.0 46 111
- 2.54272 3 4 tcp 1040 ------- 1 0.0 4.0 46 111
r 2.5428 3 0 ack 40 ------- 1 4.0 0.0 41 109
+ 2.5428 0 3 tcp 1040 ------- 1 0.0 4.0 47 113
- 2.5428 0 3 tcp 1040 ------- 1 0.0 4.0 47 113
+ 2.5428 0 3 tcp 1040 ------- 1 0.0 4.0 48 114
r 2.55816 3 4 tcp 1040 ------- 1 0.0 4.0 44 108
- 2.55944 0 3 tcp 1040 ------- 1 0.0 4.0 48 114
r 2.57608 3 0 ack 40 ------- 1 4.0 0.0 43 112
+ 2.57608 0 3 tcp 1040 ------- 1 0.0 4.0 49 115
+ 2.57608 0 3 tcp 1040 ------- 1 0.0 4.0 50 116
- 2.57608 0 3 tcp 1040 ------- 1 0.0 4.0 49 115
r 2.59272 3 4 tcp 1040 ------- 1 0.0 4.0 45 110
+ 2.59272 4 3 ack 40 ------- 1 4.0 0.0 45 117
- 2.59272 4 3 ack 40 ------- 1 4.0 0.0 45 117
- 2.59272 0 3 tcp 1040 ------- 1 0.0 4.0 50 116
r 2.60936 3 4 tcp 1040 ------- 1 0.0 4.0 46 111
r 2.60944 0 3 tcp 1040 ------- 1 0.0 4.0 47 113
+ 2.60944 3 4 tcp 1040 ------- 1 0.0 4.0 47 113
- 2.60944 3 4 tcp 1040 ------- 1 0.0 4.0 47 113
r 2.62608 0 3 tcp 1040 ------- 1 0.0 4.0 48 114
+ 2.62608 3 4 tcp 1040 ------- 1 0.0 4.0 48 114
- 2.62608 3 4 tcp 1040 ------- 1 0.0 4.0 48 114
r 2.64272 0 3 tcp 1040 ------- 1 0.0 4.0 49 115
+ 2.64272 3 4 tcp 1040 ------- 1 0.0 4.0 49 115
- 2.64272 3 4 tcp 1040 ------- 1 0.0 4.0 49 115
r 2.64336 4 3 ack 40 ------- 1 4.0 0.0 45 117
+ 2.64336 3 0 ack 40 ------- 1 4.0 0.0 45 117
- 2.64336 3 0 ack 40 ------- 1 4.0 0.0 45 117
r 2.65936 0 3 tcp 1040 ------- 1 0.0 4.0 50 116
+ 2.65936 3 4 tcp 1040 ------- 1 0.0 4.0 50 116
- 2.65936 3 4 tcp 1040 ------- 1 0.0 4.0 50 116
r 2.67608 3 4 tcp 1040 ------- 1 0.0 4.0 47 113
+ 2.67608 4 3 ack 40 ------- 1 4.0 0.0 47 118
- 2.67608 4 3 ack 40 ------- 1 4.0 0.0 47 118
r 2.69272 3 4 tcp 1040 ------- 1 0.0 4.0 48 114
r 2.694 3 0 ack 40 ------- 1 4.0 0.0 45 117
+ 2.694 0 3 tcp 1040 ------- 1 0.0 4.0 51 119
- 2.694 0 3 tcp 1040 ------- 1 0.0 4.0 51 119
+ 2.694 0 3 tcp 1040 ------- 1 0.0 4.0 52 120
r 2.70936 3 4 tcp 1040 ------- 1 0.0 4.0 49 115
+ 2.70936 4 3 ack 40 ------- 1 4.0 0.0 49 121
- 2.70936 4 3 ack 40 ------- 1 4.0 0.0 49 121
- 2.71064 0 3 tcp 1040 ------- 1 0.0 4.0 52 120
r 2.726 3 4 tcp 1040 ------- 1 0.0 4.0 50 116
r 2.72672 4 3 ack 40 ------- 1 4.0 0.0 47 118
+ 2.72672 3 0 ack 40 ------- 1 4.0 0.0 47 118
- 2.72672 3 0 ack 40 ------- 1 4.0 0.0 47 118
r 2.76 4 3 ack 40 ------- 1 4.0 0.0 49 121
+ 2.76 3 0 ack 40 ------- 1 4.0 0.0 49 121
- 2.76 3 0 ack 40 ------- 1 4.0 0.0 49 121
r 2.76064 0 3 tcp 1040 ------- 1 0.0 4.0 51 119
+ 2.76064 3 4 tcp 1040 ------- 1 0.0 4.0 51 119
- 2.76064 3 4 tcp 1040 ------- 1 0.0 4.0 51 119
r 2.77728 0 3 tcp 1040 ------- 1 0.0 4.0 52 120
+ 2.77728 3 4 tcp 1040 ------- 1 0.0 4.0 52 120
- 2.77728 3 4 tcp 1040 ------- 1 0.0 4.0 52 120
r 2.77736 3 0 ack 40 ------- 1 4.0 0.0 47 118
+ 2.77736 0 3 tcp 1040 ------- 1 0.0 4.0 53 122
- 2.77736 0 3 tcp 1040 ------- 1 0.0 4.0 53 122
+ 2.77736 0 3 tcp 1040 ------- 1 0.0 4.0 54 123
- 2.794 0 3 tcp 1040 ------- 1 0.0 4.0 54 123
r 2.81064 3 0 ack 40 ------- 1 4.0 0.0 49 121
+ 2.81064 0 3 tcp 1040 ------- 1 0.0 4.0 55 124
+ 2.81064 0 3 tcp 1040 ------- 1 0.0 4.0 56 125
- 2.81064 0 3 tcp 1040 ------- 1 0.0 4.0 55 124
+ 2.826 4 3 ack 40 ------- 1 4.0 0.0 50 126
- 2.826 4 3 ack 40 ------- 1 4.0 0.0 50 126
r 2.82728 3 4 tcp 1040 ------- 1 0.0 4.0 51 119
- 2.82728 0 3 tcp 1040 ------- 1 0.0 4.0 56 125
r 2.84392 3 4 tcp 1040 ------- 1 0.0 4.0 52 120
+ 2.84392 4 3 ack 40 ------- 1 4.0 0.0 52 127
- 2.84392 4 3 ack 40 ------- 1 4.0 0.0 52 127
r 2.844 0 3 tcp 1040 ------- 1 0.0 4.0 53 122
+ 2.844 3 4 tcp 1040 ------- 1 0.0 4.0 53 122
- 2.844 3 4 tcp 1040 ------- 1 0.0 4.0 53 122
r 2.86064 0 3 tcp 1040 ------- 1 0.0 4.0 54 123
+ 2.86064 3 4 tcp 1040 ------- 1 0.0 4.0 54 123
- 2.86064 3 4 tcp 1040 ------- 1 0.0 4.0 54 123
r 2.87664 4 3 ack 40 ------- 1 4.0 0.0 50 126
+ 2.87664 3 0 ack 40 ------- 1 4.0 0.0 50 126
- 2.87664 3 0 ack 40 ------- 1 4.0 0.0 50 126
r 2.87728 0 3 tcp 1040 ------- 1 0.0 4.0 55 124
+ 2.87728 3 4 tcp 1040 ------- 1 0.0 4.0 55 124
- 2.87728 3 4 tcp 1040 ------- 1 0.0 4.0 55 124
r 2.89392 0 3 tcp 1040 ------- 1 0.0 4.0 56 125
+ 2.89392 3 4 tcp 1040 ------- 1 0.0 4.0 56 125
- 2.89392 3 4 tcp 1040 ------- 1 0.0 4.0 56 125
r 2.89456 4 3 ack 40 ------- 1 4.0 0.0 52 127
+ 2.89456 3 0 ack 40 ------- 1 4.0 0.0 52 127
- 2.89456 3 0 ack 40 ------- 1 4.0 0.0 52 127
r 2.91064 3 4 tcp 1040 ------- 1 0.0 4.0 53 122
r 2.92728 3 4 tcp 1040 ------- 1 0.0 4.0 54 123
+ 2.92728 4 3 ack 40 ------- 1 4.0 0.0 54 128
- 2.92728 4 3 ack 40 ------- 1 4.0 0.0 54 128
r 2.92728 3 0 ack 40 ------- 1 4.0 0.0 50 126
+ 2.92728 0 3 tcp 1040 ------- 1 0.0 4.0 57 129
- 2.92728 0 3 tcp 1040 ------- 1 0.0 4.0 57 129
+ 2.92728 0 3 tcp 1040 ------- 1 0.0 4.0 58 130
r 2.94392 3 4 tcp 1040 ------- 1 0.0 4.0 55 124
- 2.94392 0 3 tcp 1040 ------- 1 0.0 4.0 58 130
r 2.9452 3 0 ack 40 ------- 1 4.0 0.0 52 127
+ 2.9452 0 3 tcp 1040 ------- 1 0.0 4.0 59 131
+ 2.9452 0 3 tcp 1040 ------- 1 0.0 4.0 60 132
r 2.96056 3 4 tcp 1040 ------- 1 0.0 4.0 56 125
+ 2.96056 4 3 ack 40 ------- 1 4.0 0.0 56 133
- 2.96056 4 3 ack 40 ------- 1 4.0 0.0 56 133
- 2.96056 0 3 tcp 1040 ------- 1 0.0 4.0 59 131
- 2.9772 0 3 tcp 1040 ------- 1 0.0 4.0 60 132
r 2.97792 4 3 ack 40 ------- 1 4.0 0.0 54 128
+ 2.97792 3 0 ack 40 ------- 1 4.0 0.0 54 128
- 2.97792 3 0 ack 40 ------- 1 4.0 0.0 54 128
r 2.99392 0 3 tcp 1040 ------- 1 0.0 4.0 57 129
+ 2.99392 3 4 tcp 1040 ------- 1 0.0 4.0 57 129
- 2.99392 3 4 tcp 1040 ------- 1 0.0 4.0 57 129
r 3.01056 0 3 tcp 1040 ------- 1 0.0 4.0 58 130
+ 3.01056 3 4 tcp 1040 ------- 1 0.0 4.0 58 130
- 3.01056 3 4 tcp 1040 ------- 1 0.0 4.0 58 130
r 3.0112 4 3 ack 40 ------- 1 4.0 0.0 56 133
+ 3.0112 3 0 ack 40 ------- 1 4.0 0.0 56 133
- 3.0112 3 0 ack 40 ------- 1 4.0 0.0 56 133
r 3.0272 0 3 tcp 1040 ------- 1 0.0 4.0 59 131
+ 3.0272 3 4 tcp 1040 ------- 1 0.0 4.0 59 131
- 3.0272 3 4 tcp 1040 ------- 1 0.0 4.0 59 131
r 3.02856 3 0 ack 40 ------- 1 4.0 0.0 54 128
+ 3.02856 0 3 tcp 1040 ------- 1 0.0 4.0 61 134
- 3.02856 0 3 tcp 1040 ------- 1 0.0 4.0 61 134
+ 3.02856 0 3 tcp 1040 ------- 1 0.0 4.0 62 135
r 3.04384 0 3 tcp 1040 ------- 1 0.0 4.0 60 132
+ 3.04384 3 4 tcp 1040 ------- 1 0.0 4.0 60 132
- 3.04384 3 4 tcp 1040 ------- 1 0.0 4.0 60 132
- 3.0452 0 3 tcp 1040 ------- 1 0.0 4.0 62 135
r 3.06056 3 4 tcp 1040 ------- 1 0.0 4.0 57 129
r 3.06184 3 0 ack 40 ------- 1 4.0 0.0 56 133
+ 3.06184 0 3 tcp 1040 ------- 1 0.0 4.0 63 136
+ 3.06184 0 3 tcp 1040 ------- 1 0.0 4.0 64 137
- 3.06184 0 3 tcp 1040 ------- 1 0.0 4.0 63 136
r 3.0772 3 4 tcp 1040 ------- 1 0.0 4.0 58 130
+ 3.0772 4 3 ack 40 ------- 1 4.0 0.0 58 138
- 3.0772 4 3 ack 40 ------- 1 4.0 0.0 58 138
- 3.07848 0 3 tcp 1040 ------- 1 0.0 4.0 64 137
r 3.09384 3 4 tcp 1040 ------- 1 0.0 4.0 59 131
r 3.0952 0 3 tcp 1040 ------- 1 0.0 4.0 61 134
+ 3.0952 3 4 tcp 1040 ------- 1 0.0 4.0 61 134
- 3.0952 3 4 tcp 1040 ------- 1 0.0 4.0 61 134
r 3.11048 3 4 tcp 1040 ------- 1 0.0 4.0 60 132
+ 3.11048 4 3 ack 40 ------- 1 4.0 0.0 60 139
- 3.11048 4 3 ack 40 ------- 1 4.0 0.0 60 139
r 3.11184 0 3 tcp 1040 ------- 1 0.0 4.0 62 135
+ 3.11184 3 4 tcp 1040 ------- 1 0.0 4.0 62 135
- 3.11184 3 4 tcp 1040 ------- 1 0.0 4.0 62 135
r 3.12784 4 3 ack 40 ------- 1 4.0 0.0 58 138
+ 3.12784 3 0 ack 40 ------- 1 4.0 0.0 58 138
- 3.12784 3 0 ack 40 ------- 1 4.0 0.0 58 138
r 3.12848 0 3 tcp 1040 ------- 1 0.0 4.0 63 136
+ 3.12848 3 4 tcp 1040 ------- 1 0.0 4.0 63 136
- 3.12848 3 4 tcp 1040 ------- 1 0.0 4.0 63 136
r 3.14512 0 3 tcp 1040 ------- 1 0.0 4.0 64 137
+ 3.14512 3 4 tcp 1040 ------- 1 0.0 4.0 64 137
- 3.14512 3 4 tcp 1040 ------- 1 0.0 4.0 64 137
r 3.16112 4 3 ack 40 ------- 1 4.0 0.0 60 139
+ 3.16112 3 0 ack 40 ------- 1 4.0 0.0 60 139
- 3.16112 3 0 ack 40 ------- 1 4.0 0.0 60 139
r 3.16184 3 4 tcp 1040 ------- 1 0.0 4.0 61 134
r 3.17848 3 4 tcp 1040 ------- 1 0.0 4.0 62 135
+ 3.17848 4 3 ack 40 ------- 1 4.0 0.0 62 140
- 3.17848 4 3 ack 40 ------- 1 4.0 0.0 62 140
r 3.17848 3 0 ack 40 ------- 1 4.0 0.0 58 138
+ 3.17848 0 3 tcp 1040 ------- 1 0.0 4.0 65 141
- 3.17848 0 3 tcp 1040 ------- 1 0.0 4.0 65 141
+ 3.17848 0 3 tcp 1040 ------- 1 0.0 4.0 66 142
r 3.19512 3 4 tcp 1040 ------- 1 0.0 4.0 63 136
- 3.19512 0 3 tcp 1040 ------- 1 0.0 4.0 66 142
r 3.21176 3 4 tcp 1040 ------- 1 0.0 4.0 64 137
+ 3.21176 4 3 ack 40 ------- 1 4.0 0.0 64 143
- 3.21176 4 3 ack 40 ------- 1 4.0 0.0 64 143
r 3.21176 3 0 ack 40 ------- 1 4.0 0.0 60 139
+ 3.21176 0 3 tcp 1040 ------- 1 0.0 4.0 67 144
+ 3.21176 0 3 tcp 1040 ------- 1 0.0 4.0 68 145
- 3.21176 0 3 tcp 1040 ------- 1 0.0 4.0 67 144
- 3.2284 0 3 tcp 1040 ------- 1 0.0 4.0 68 145
r 3.22912 4 3 ack 40 ------- 1 4.0 0.0 62 140
+ 3.22912 3 0 ack 40 ------- 1 4.0 0.0 62 140
- 3.22912 3 0 ack 40 ------- 1 4.0 0.0 62 140
r 3.24512 0 3 tcp 1040 ------- 1 0.0 4.0 65 141
+ 3.24512 3 4 tcp 1040 ------- 1 0.0 4.0 65 141
- 3.24512 3 4 tcp 1040 ------- 1 0.0 4.0 65 141
r 3.26176 0 3 tcp 1040 ------- 1 0.0 4.0 66 142
+ 3.26176 3 4 tcp 1040 ------- 1 0.0 4.0 66 142
- 3.26176 3 4 tcp 1040 ------- 1 0.0 4.0 66 142
r 3.2624 4 3 ack 40 ------- 1 4.0 0.0 64 143
+ 3.2624 3 0 ack 40 ------- 1 4.0 0.0 64 143
- 3.2624 3 0 ack 40 ------- 1 4.0 0.0 64 143
r 3.2784 0 3 tcp 1040 ------- 1 0.0 4.0 67 144
+ 3.2784 3 4 tcp 1040 ------- 1 0.0 4.0 67 144
- 3.2784 3 4 tcp 1040 ------- 1 0.0 4.0 67 144
r 3.27976 3 0 ack 40 ------- 1 4.0 0.0 62 140
+ 3.27976 0 3 tcp 1040 ------- 1 0.0 4.0 69 146
- 3.27976 0 3 tcp 1040 ------- 1 0.0 4.0 69 146
+ 3.27976 0 3 tcp 1040 ------- 1 0.0 4.0 70 147
r 3.29504 0 3 tcp 1040 ------- 1 0.0 4.0 68 145
+ 3.29504 3 4 tcp 1040 ------- 1 0.0 4.0 68 145
- 3.29504 3 4 tcp 1040 ------- 1 0.0 4.0 68 145
- 3.2964 0 3 tcp 1040 ------- 1 0.0 4.0 70 147
r 3.31176 3 4 tcp 1040 ------- 1 0.0 4.0 65 141
r 3.31304 3 0 ack 40 ------- 1 4.0 0.0 64 143
+ 3.31304 0 3 tcp 1040 ------- 1 0.0 4.0 71 148
+ 3.31304 0 3 tcp 1040 ------- 1 0.0 4.0 72 149
- 3.31304 0 3 tcp 1040 ------- 1 0.0 4.0 71 148
r 3.3284 3 4 tcp 1040 ------- 1 0.0 4.0 66 142
+ 3.3284 4 3 ack 40 ------- 1 4.0 0.0 66 150
- 3.3284 4 3 ack 40 ------- 1 4.0 0.0 66 150
- 3.32968 0 3 tcp 1040 ------- 1 0.0 4.0 72 149
r 3.34504 3 4 tcp 1040 ------- 1 0.0 4.0 67 144
r 3.3464 0 3 tcp 1040 ------- 1 0.0 4.0 69 146
+ 3.3464 3 4 tcp 1040 ------- 1 0.0 4.0 69 146
- 3.3464 3 4 tcp 1040 ------- 1 0.0 4.0 69 146
r 3.36168 3 4 tcp 1040 ------- 1 0.0 4.0 68 145
+ 3.36168 4 3 ack 40 ------- 1 4.0 0.0 68 151
- 3.36168 4 3 ack 40 ------- 1 4.0 0.0 68 151
r 3.36304 0 3 tcp 1040 ------- 1 0.0 4.0 70 147
+ 3.36304 3 4 tcp 1040 ------- 1 0.0 4.0 70 147